version 2
run OnOff-0-20130106-15:55:29-7100
attr configname OnOff
attr datetime 20130106-15:55:29
attr experiment OnOff
attr inifile omnetpp.ini
attr iterationvars ""
attr iterationvars2 $repetition=0
attr measurement ""
attr network OnOffNetwork
attr processid 7100
attr repetition 0
attr replication #0
attr resultdir results
attr runnumber 0
attr seedset 0

vector 0  OnOffNetwork.OnOff  "Changes vector"  ETV
attr interpolationmode  none
vector 1  OnOffNetwork.sink  arrivals  ETV
attr interpolationmode  none
0	1	0	1
0	3	0.107912687211	1
0	3	0.107912687211	0
0	4	0.766829363975	0
0	5	2.192344072871	0
0	6	2.357946530196	0
0	6	2.357946530196	1
0	8	2.595457887669	1
0	10	2.661475976894	1
0	10	2.661475976894	0
0	11	2.790766263752	0
0	12	3.365358898131	0
0	12	3.365358898131	1
0	14	3.426128841527	1
0	14	3.426128841527	0
0	15	3.531664164182	0
0	15	3.531664164182	1
0	17	3.828276326294	1
0	19	5.730010520436	1
0	21	7.91088022006	1
0	21	7.91088022006	0
0	22	8.670518450843	0
0	23	9.29030855052	0
0	23	9.29030855052	1
0	25	10.527364123604	1
0	27	11.492170250531	1
0	27	11.492170250531	0
0	28	11.812056387385	0
0	28	11.812056387385	1
0	30	11.958545708409	1
0	30	11.958545708409	0
0	31	12.333980891258	0
0	31	12.333980891258	1
0	33	13.811342377552	1
0	35	13.960269011302	1
0	37	14.089397565531	1
0	37	14.089397565531	0
0	38	14.588112896533	0
0	38	14.588112896533	1
0	40	15.035649392238	1
0	42	15.21456818468	1
0	44	17.017446378325	1
0	44	17.017446378325	0
0	45	17.73535878509	0
0	46	17.937191073283	0
0	46	17.937191073283	1
0	48	18.189588517432	1
0	48	18.189588517432	0
0	49	18.196619835437	0
0	50	18.521604859363	0
0	51	18.653587953988	0
0	52	20.358624178863	0
0	53	20.588430936127	0
0	54	22.5221387643	0
0	55	24.43499095015	0
0	55	24.43499095015	1
0	57	25.561841299709	1
0	57	25.561841299709	0
0	58	25.961868314936	0
0	58	25.961868314936	1
0	60	26.4442508074	1
0	60	26.4442508074	0
0	61	27.126488776999	0
0	62	27.469617091045	0
0	62	27.469617091045	1
0	64	27.777977687427	1
0	66	27.794320143208	1
0	68	27.815566268975	1
0	70	28.747901194165	1
0	72	28.774995612485	1
0	72	28.774995612485	0
0	73	29.695337192612	0
0	73	29.695337192612	1
0	75	30.149953528491	1
0	77	30.154419361079	1
0	77	30.154419361079	0
0	78	31.282759277764	0
0	78	31.282759277764	1
0	80	31.704708747746	1
0	82	31.906881703353	1
0	84	32.759599029387	1
0	84	32.759599029387	0
0	85	32.991110461245	0
0	85	32.991110461245	1
0	87	33.735460916702	1
0	89	33.746688996168	1
0	89	33.746688996168	0
0	90	33.823074681833	0
0	90	33.823074681833	1
0	92	34.096294074823	1
0	92	34.096294074823	0
0	93	34.146727086089	0
0	93	34.146727086089	1
0	95	34.552764667306	1
0	95	34.552764667306	0
0	96	34.792517031296	0
0	96	34.792517031296	1
0	98	34.815885513792	1
0	100	35.429032534081	1
0	102	35.570329213279	1
0	102	35.570329213279	0
0	103	35.660725632466	0
0	104	36.16642293649	0
0	104	36.16642293649	1
0	106	36.46458410797	1
0	108	36.828966931666	1
0	108	36.828966931666	0
0	109	37.61259015439	0
0	110	38.977110073141	0
0	110	38.977110073141	1
0	112	39.321408482287	1
0	114	40.02092444251	1
0	116	40.417634405898	1
0	116	40.417634405898	0
0	117	40.978697232988	0
0	117	40.978697232988	1
0	119	41.373296830838	1
0	119	41.373296830838	0
0	120	42.998467046019	0
0	121	44.053325668437	0
0	121	44.053325668437	1
0	123	44.421526550609	1
0	123	44.421526550609	0
0	124	45.288394420732	0
0	125	45.347981550409	0
0	126	45.645563397631	0
0	127	46.798358889203	0
0	128	46.864133757126	0
0	129	47.651882439153	0
0	130	48.580874711095	0
0	131	49.794248453209	0
0	131	49.794248453209	1
0	133	49.833151116471	1
0	135	49.89950095732	1
0	137	50.768267461347	1
0	139	51.068502959606	1
0	141	51.091601799436	1
0	143	51.158759468998	1
0	143	51.158759468998	0
0	144	51.519222540553	0
0	144	51.519222540553	1
0	146	51.813175008988	1
0	148	53.213636508753	1
0	150	53.331455205742	1
0	150	53.331455205742	0
0	151	53.421192076155	0
0	151	53.421192076155	1
0	153	54.110126344157	1
0	153	54.110126344157	0
0	154	54.354243639619	0
0	155	54.548782197602	0
0	156	54.748809918833	0
0	157	55.021064691682	0
0	158	55.681847950646	0
0	159	56.569789314497	0
0	160	57.223246502663	0
0	160	57.223246502663	1
0	162	57.89918687439	1
0	162	57.89918687439	0
0	163	60.821721906168	0
0	164	60.93621277808	0
0	165	61.317323047206	0
0	166	61.330990375553	0
0	166	61.330990375553	1
0	168	62.657264330523	1
0	170	63.289012444164	1
0	172	63.39284151122	1
0	174	63.772292263477	1
0	176	64.142574825255	1
0	176	64.142574825255	0
0	177	64.21205057142	0
0	178	65.143346027265	0
0	178	65.143346027265	1
0	180	66.547613532022	1
0	182	67.239469674794	1
0	182	67.239469674794	0
0	183	67.706872479976	0
0	184	67.710120064839	0
0	184	67.710120064839	1
0	186	67.77197945548	1
0	186	67.77197945548	0
0	187	67.881963239312	0
0	188	68.189950017577	0
0	189	68.440954665292	0
0	190	68.866624328054	0
0	190	68.866624328054	1
0	192	69.109078012372	1
0	194	69.897990025707	1
0	196	70.560070776186	1
0	196	70.560070776186	0
0	197	70.963836573556	0
0	198	71.168779613798	0
0	198	71.168779613798	1
0	200	72.494475617783	1
0	202	72.695149615612	1
0	202	72.695149615612	0
0	203	73.221905663801	0
0	203	73.221905663801	1
0	205	73.595140236748	1
0	205	73.595140236748	0
0	206	73.96671711883	0
0	207	75.240681988425	0
0	208	75.43653742593	0
0	209	76.3026332296	0
0	209	76.3026332296	1
0	211	76.400658570145	1
0	211	76.400658570145	0
0	212	76.795500247064	0
0	212	76.795500247064	1
0	214	77.818704517046	1
0	214	77.818704517046	0
0	215	78.519500341831	0
0	216	78.975178560628	0
0	217	79.053918296498	0
0	217	79.053918296498	1
0	219	79.07997176554	1
0	221	80.498991952619	1
0	223	80.994883374498	1
0	223	80.994883374498	0
0	224	81.344235037365	0
0	225	82.615079651384	0
0	226	82.916510598996	0
0	226	82.916510598996	1
0	228	83.603327622336	1
0	230	84.490688099308	1
0	230	84.490688099308	0
0	231	84.62508506671	0
0	231	84.62508506671	1
0	233	84.627468744563	1
0	235	85.090503273623	1
0	235	85.090503273623	0
0	236	85.11770413386	0
0	236	85.11770413386	1
0	238	85.431427548164	1
0	240	85.488744386073	1
0	242	85.522795784952	1
0	244	85.781733398875	1
0	246	85.934287041301	1
0	246	85.934287041301	0
0	247	87.070060774707	0
0	247	87.070060774707	1
0	249	88.407325061802	1
0	249	88.407325061802	0
0	250	88.718015812114	0
0	251	88.973533667378	0
0	251	88.973533667378	1
0	253	89.863038074153	1
0	253	89.863038074153	0
0	254	89.926863577386	0
0	255	90.139014670534	0
0	256	90.626548943893	0
0	256	90.626548943893	1
0	258	91.008014737984	1
0	258	91.008014737984	0
0	259	91.569970629773	0
0	260	93.14211917751	0
0	260	93.14211917751	1
0	262	93.372616378791	1
0	264	93.609366713878	1
0	266	93.645284279647	1
0	268	94.157990315919	1
0	270	94.283512756611	1
0	270	94.283512756611	0
0	271	94.668093291865	0
0	271	94.668093291865	1
0	273	95.051531095505	1
0	275	95.768774783945	1
0	275	95.768774783945	0
0	276	96.094548434598	0
0	276	96.094548434598	1
0	278	96.612765794098	1
0	280	96.841154842733	1
0	282	97.172978946877	1
0	284	97.539299244667	1
0	284	97.539299244667	0
0	285	97.784586917051	0
0	285	97.784586917051	1
0	287	97.834260687929	1
0	289	97.940318900031	1
0	289	97.940318900031	0
0	290	98.247216877886	0
0	290	98.247216877886	1
1	2	0	1
1	7	2.357946530196	1
1	9	2.595457887669	1
1	13	3.365358898131	1
1	16	3.531664164182	1
1	18	3.828276326294	1
1	20	5.730010520436	1
1	24	9.29030855052	1
1	26	10.527364123604	1
1	29	11.812056387385	1
1	32	12.333980891258	1
1	34	13.811342377552	1
1	36	13.960269011302	1
1	39	14.588112896533	1
1	41	15.035649392238	1
1	43	15.21456818468	1
1	47	17.937191073283	1
1	56	24.43499095015	1
1	59	25.961868314936	1
1	63	27.469617091045	1
1	65	27.777977687427	1
1	67	27.794320143208	1
1	69	27.815566268975	1
1	71	28.747901194165	1
1	74	29.695337192612	1
1	76	30.149953528491	1
1	79	31.282759277764	1
1	81	31.704708747746	1
1	83	31.906881703353	1
1	86	32.991110461245	1
1	88	33.735460916702	1
1	91	33.823074681833	1
1	94	34.146727086089	1
1	97	34.792517031296	1
1	99	34.815885513792	1
1	101	35.429032534081	1
1	105	36.16642293649	1
1	107	36.46458410797	1
1	111	38.977110073141	1
1	113	39.321408482287	1
1	115	40.02092444251	1
1	118	40.978697232988	1
1	122	44.053325668437	1
1	132	49.794248453209	1
1	134	49.833151116471	1
1	136	49.89950095732	1
1	138	50.768267461347	1
1	140	51.068502959606	1
1	142	51.091601799436	1
1	145	51.519222540553	1
1	147	51.813175008988	1
1	149	53.213636508753	1
1	152	53.421192076155	1
1	161	57.223246502663	1
1	167	61.330990375553	1
1	169	62.657264330523	1
1	171	63.289012444164	1
1	173	63.39284151122	1
1	175	63.772292263477	1
1	179	65.143346027265	1
1	181	66.547613532022	1
1	185	67.710120064839	1
1	191	68.866624328054	1
1	193	69.109078012372	1
1	195	69.897990025707	1
1	199	71.168779613798	1
1	201	72.494475617783	1
1	204	73.221905663801	1
1	210	76.3026332296	1
1	213	76.795500247064	1
1	218	79.053918296498	1
1	220	79.07997176554	1
1	222	80.498991952619	1
1	227	82.916510598996	1
1	229	83.603327622336	1
1	232	84.62508506671	1
1	234	84.627468744563	1
1	237	85.11770413386	1
1	239	85.431427548164	1
1	241	85.488744386073	1
1	243	85.522795784952	1
1	245	85.781733398875	1
1	248	87.070060774707	1
1	252	88.973533667378	1
1	257	90.626548943893	1
1	261	93.14211917751	1
1	263	93.372616378791	1
1	265	93.609366713878	1
1	267	93.645284279647	1
1	269	94.157990315919	1
1	272	94.668093291865	1
1	274	95.051531095505	1
1	277	96.094548434598	1
1	279	96.612765794098	1
1	281	96.841154842733	1
1	283	97.172978946877	1
1	286	97.784586917051	1
1	288	97.834260687929	1
