version 2
run Sim2-0-20130106-12:42:28-8289
attr configname Sim2
attr datetime 20130106-12:42:28
attr experiment Sim2
attr inifile omnetpp.ini
attr iterationvars ""
attr iterationvars2 $repetition=0
attr measurement ""
attr network PoissonGeneratorNetwork
attr processid 8289
attr repetition 0
attr replication #0
attr resultdir results
attr runnumber 0
attr seedset 0

vector 0  PoissonGeneratorNetwork.sink  arrivals  ETV
attr interpolationmode  none
0	1	30	1
0	3	67	1
0	5	90	1
0	7	111	1
0	9	134	1
0	11	167	1
0	13	196	1
0	15	224	1
0	17	263	1
0	19	290	1
0	21	323	1
0	23	346	1
0	25	370	1
0	27	392	1
0	29	422	1
0	31	444	1
0	33	468	1
0	35	494	1
0	37	522	1
0	39	554	1
0	41	576	1
0	43	613	1
0	45	643	1
0	47	668	1
0	49	702	1
0	51	727	1
0	53	758	1
0	55	791	1
0	57	818	1
0	59	853	1
0	61	878	1
0	63	909	1
0	65	940	1
0	67	962	1
0	69	991	1
0	71	1016	1
0	73	1044	1
0	75	1070	1
0	77	1104	1
0	79	1133	1
0	81	1162	1
0	83	1189	1
0	85	1223	1
0	87	1244	1
0	89	1278	1
0	91	1313	1
0	93	1336	1
0	95	1365	1
0	97	1404	1
0	99	1436	1
0	101	1462	1
0	103	1490	1
0	105	1512	1
0	107	1544	1
0	109	1569	1
0	111	1602	1
0	113	1631	1
0	115	1660	1
0	117	1692	1
0	119	1725	1
0	121	1751	1
0	123	1780	1
0	125	1814	1
0	127	1844	1
0	129	1882	1
0	131	1907	1
0	133	1940	1
0	135	1982	1
0	137	2012	1
0	139	2036	1
0	141	2077	1
0	143	2107	1
0	145	2135	1
0	147	2160	1
0	149	2198	1
0	151	2238	1
0	153	2267	1
0	155	2298	1
0	157	2329	1
0	159	2358	1
0	161	2381	1
0	163	2410	1
0	165	2452	1
0	167	2491	1
0	169	2518	1
0	171	2541	1
0	173	2571	1
0	175	2603	1
0	177	2634	1
0	179	2661	1
0	181	2695	1
0	183	2726	1
0	185	2754	1
0	187	2798	1
0	189	2828	1
0	191	2851	1
0	193	2884	1
0	195	2919	1
0	197	2948	1
0	199	2988	1
0	201	3020	1
0	203	3049	1
0	205	3090	1
0	207	3127	1
0	209	3154	1
0	211	3184	1
0	213	3228	1
0	215	3265	1
0	217	3294	1
0	219	3319	1
0	221	3353	1
0	223	3380	1
0	225	3402	1
0	227	3423	1
0	229	3458	1
0	231	3481	1
0	233	3508	1
0	235	3541	1
0	237	3574	1
0	239	3599	1
0	241	3625	1
0	243	3663	1
0	245	3699	1
0	247	3731	1
0	249	3760	1
0	251	3794	1
0	253	3820	1
0	255	3852	1
0	257	3892	1
0	259	3927	1
0	261	3966	1
0	263	3995	1
0	265	4031	1
0	267	4062	1
0	269	4092	1
0	271	4122	1
0	273	4151	1
0	275	4183	1
0	277	4212	1
0	279	4245	1
0	281	4277	1
0	283	4318	1
0	285	4343	1
0	287	4386	1
0	289	4413	1
0	291	4438	1
0	293	4467	1
0	295	4502	1
0	297	4537	1
0	299	4567	1
0	301	4605	1
0	303	4631	1
0	305	4663	1
0	307	4691	1
0	309	4725	1
0	311	4757	1
0	313	4793	1
0	315	4828	1
0	317	4854	1
0	319	4884	1
0	321	4911	1
0	323	4943	1
0	325	4975	1
0	327	4998	1
0	329	5022	1
0	331	5058	1
0	333	5094	1
0	335	5119	1
0	337	5158	1
0	339	5177	1
0	341	5213	1
0	343	5249	1
0	345	5276	1
0	347	5305	1
0	349	5337	1
0	351	5372	1
0	353	5403	1
0	355	5431	1
0	357	5462	1
0	359	5501	1
0	361	5536	1
0	363	5562	1
0	365	5580	1
0	367	5618	1
0	369	5647	1
0	371	5670	1
0	373	5700	1
0	375	5734	1
0	377	5766	1
0	379	5804	1
0	381	5834	1
0	383	5870	1
0	385	5892	1
0	387	5933	1
0	389	5964	1
0	391	5993	1
0	393	6012	1
0	395	6039	1
0	397	6060	1
0	399	6095	1
0	401	6132	1
0	403	6158	1
0	405	6191	1
0	407	6207	1
0	409	6234	1
0	411	6256	1
0	413	6285	1
0	415	6309	1
0	417	6327	1
0	419	6360	1
0	421	6384	1
0	423	6413	1
0	425	6432	1
0	427	6468	1
0	429	6497	1
0	431	6528	1
0	433	6563	1
0	435	6593	1
0	437	6633	1
0	439	6666	1
0	441	6694	1
0	443	6721	1
0	445	6745	1
0	447	6772	1
0	449	6803	1
0	451	6830	1
0	453	6865	1
0	455	6895	1
0	457	6928	1
0	459	6949	1
0	461	6973	1
0	463	7003	1
0	465	7040	1
0	467	7074	1
0	469	7108	1
0	471	7142	1
0	473	7167	1
0	475	7201	1
0	477	7227	1
0	479	7268	1
0	481	7303	1
0	483	7338	1
0	485	7361	1
0	487	7383	1
0	489	7411	1
0	491	7436	1
0	493	7470	1
0	495	7497	1
0	497	7526	1
0	499	7550	1
0	501	7573	1
0	503	7607	1
0	505	7642	1
0	507	7665	1
0	509	7703	1
0	511	7725	1
0	513	7759	1
0	515	7787	1
0	517	7822	1
0	519	7860	1
0	521	7885	1
0	523	7916	1
0	525	7940	1
0	527	7969	1
0	529	7999	1
0	531	8032	1
0	533	8067	1
0	535	8092	1
0	537	8117	1
0	539	8145	1
0	541	8178	1
0	543	8204	1
0	545	8234	1
0	547	8263	1
0	549	8299	1
0	551	8327	1
0	553	8350	1
0	555	8376	1
0	557	8409	1
0	559	8439	1
0	561	8467	1
0	563	8488	1
0	565	8523	1
0	567	8555	1
0	569	8581	1
0	571	8602	1
0	573	8630	1
0	575	8658	1
0	577	8679	1
0	579	8695	1
0	581	8729	1
0	583	8759	1
0	585	8796	1
0	587	8819	1
0	589	8846	1
0	591	8879	1
0	593	8909	1
0	595	8942	1
0	597	8974	1
0	599	9000	1
0	601	9026	1
0	603	9062	1
0	605	9100	1
0	607	9131	1
0	609	9157	1
0	611	9192	1
0	613	9221	1
0	615	9248	1
0	617	9281	1
0	619	9313	1
0	621	9343	1
0	623	9375	1
0	625	9420	1
0	627	9453	1
0	629	9481	1
0	631	9508	1
0	633	9533	1
0	635	9559	1
0	637	9589	1
0	639	9616	1
0	641	9654	1
0	643	9681	1
0	645	9713	1
0	647	9752	1
0	649	9787	1
0	651	9813	1
0	653	9850	1
0	655	9888	1
0	657	9917	1
0	659	9943	1
0	661	9974	1
0	663	10005	1
0	665	10027	1
0	667	10069	1
0	669	10094	1
0	671	10123	1
0	673	10147	1
0	675	10180	1
0	677	10221	1
0	679	10258	1
0	681	10292	1
0	683	10316	1
0	685	10354	1
0	687	10385	1
0	689	10414	1
0	691	10445	1
0	693	10470	1
0	695	10504	1
0	697	10533	1
0	699	10565	1
0	701	10583	1
0	703	10606	1
0	705	10640	1
0	707	10674	1
0	709	10702	1
0	711	10730	1
0	713	10765	1
0	715	10794	1
0	717	10821	1
0	719	10849	1
0	721	10882	1
0	723	10904	1
0	725	10925	1
0	727	10964	1
0	729	10993	1
0	731	11021	1
0	733	11051	1
0	735	11076	1
0	737	11107	1
0	739	11142	1
0	741	11174	1
0	743	11201	1
0	745	11226	1
0	747	11257	1
0	749	11288	1
0	751	11315	1
0	753	11341	1
0	755	11362	1
0	757	11399	1
0	759	11436	1
0	761	11465	1
0	763	11493	1
0	765	11525	1
0	767	11564	1
0	769	11590	1
0	771	11631	1
0	773	11661	1
0	775	11684	1
0	777	11726	1
0	779	11755	1
0	781	11785	1
0	783	11815	1
0	785	11848	1
0	787	11869	1
0	789	11902	1
0	791	11935	1
0	793	11964	1
0	795	11990	1
0	797	12021	1
0	799	12050	1
0	801	12084	1
0	803	12112	1
0	805	12147	1
0	807	12174	1
0	809	12196	1
0	811	12227	1
0	813	12248	1
0	815	12275	1
0	817	12315	1
0	819	12335	1
0	821	12366	1
0	823	12400	1
0	825	12425	1
0	827	12466	1
0	829	12489	1
0	831	12519	1
0	833	12550	1
0	835	12588	1
0	837	12625	1
0	839	12652	1
0	841	12683	1
0	843	12707	1
0	845	12736	1
0	847	12770	1
0	849	12801	1
0	851	12823	1
0	853	12850	1
0	855	12876	1
0	857	12902	1
0	859	12931	1
0	861	12958	1
0	863	12986	1
0	865	13013	1
0	867	13053	1
0	869	13081	1
0	871	13109	1
0	873	13129	1
0	875	13156	1
0	877	13180	1
0	879	13212	1
0	881	13247	1
0	883	13277	1
0	885	13308	1
0	887	13343	1
0	889	13368	1
0	891	13389	1
0	893	13428	1
0	895	13451	1
0	897	13480	1
0	899	13501	1
0	901	13527	1
0	903	13563	1
0	905	13595	1
0	907	13616	1
0	909	13652	1
0	911	13683	1
0	913	13713	1
0	915	13744	1
0	917	13776	1
0	919	13803	1
0	921	13838	1
0	923	13872	1
0	925	13900	1
0	927	13939	1
0	929	13972	1
0	931	13997	1
0	933	14015	1
0	935	14051	1
0	937	14086	1
0	939	14133	1
0	941	14171	1
0	943	14193	1
0	945	14224	1
0	947	14258	1
0	949	14285	1
0	951	14316	1
0	953	14336	1
0	955	14364	1
0	957	14394	1
0	959	14430	1
0	961	14465	1
0	963	14484	1
0	965	14518	1
0	967	14544	1
0	969	14577	1
0	971	14614	1
0	973	14641	1
0	975	14667	1
0	977	14700	1
0	979	14727	1
0	981	14770	1
0	983	14796	1
0	985	14830	1
0	987	14854	1
0	989	14881	1
0	991	14918	1
0	993	14952	1
0	995	14984	1
0	997	15012	1
0	999	15036	1
0	1001	15070	1
0	1003	15105	1
0	1005	15143	1
0	1007	15175	1
0	1009	15211	1
0	1011	15247	1
0	1013	15280	1
0	1015	15306	1
0	1017	15344	1
0	1019	15363	1
0	1021	15391	1
0	1023	15417	1
0	1025	15443	1
0	1027	15475	1
0	1029	15502	1
0	1031	15531	1
0	1033	15555	1
0	1035	15584	1
0	1037	15606	1
0	1039	15634	1
0	1041	15675	1
0	1043	15705	1
0	1045	15748	1
0	1047	15766	1
0	1049	15787	1
0	1051	15812	1
0	1053	15842	1
0	1055	15873	1
0	1057	15906	1
0	1059	15935	1
0	1061	15962	1
0	1063	15995	1
0	1065	16032	1
0	1067	16059	1
0	1069	16090	1
0	1071	16125	1
0	1073	16155	1
0	1075	16189	1
0	1077	16215	1
0	1079	16238	1
0	1081	16279	1
0	1083	16311	1
0	1085	16343	1
0	1087	16372	1
0	1089	16387	1
0	1091	16420	1
0	1093	16446	1
0	1095	16470	1
0	1097	16508	1
0	1099	16537	1
0	1101	16564	1
0	1103	16599	1
0	1105	16622	1
0	1107	16653	1
0	1109	16673	1
0	1111	16693	1
0	1113	16725	1
0	1115	16758	1
0	1117	16796	1
0	1119	16825	1
0	1121	16856	1
0	1123	16891	1
0	1125	16927	1
0	1127	16959	1
0	1129	16990	1
0	1131	17012	1
0	1133	17043	1
0	1135	17068	1
0	1137	17094	1
0	1139	17117	1
0	1141	17146	1
0	1143	17173	1
0	1145	17200	1
0	1147	17231	1
0	1149	17265	1
0	1151	17297	1
0	1153	17330	1
0	1155	17361	1
0	1157	17387	1
0	1159	17409	1
0	1161	17439	1
0	1163	17478	1
0	1165	17501	1
0	1167	17533	1
0	1169	17557	1
0	1171	17582	1
0	1173	17612	1
0	1175	17636	1
0	1177	17667	1
0	1179	17690	1
0	1181	17719	1
0	1183	17738	1
0	1185	17773	1
0	1187	17805	1
0	1189	17841	1
0	1191	17875	1
0	1193	17916	1
0	1195	17941	1
0	1197	17969	1
0	1199	17994	1
0	1201	18039	1
0	1203	18065	1
0	1205	18099	1
0	1207	18130	1
0	1209	18171	1
0	1211	18200	1
0	1213	18239	1
0	1215	18268	1
0	1217	18301	1
0	1219	18329	1
0	1221	18360	1
0	1223	18389	1
0	1225	18424	1
0	1227	18449	1
0	1229	18481	1
0	1231	18515	1
0	1233	18544	1
0	1235	18565	1
0	1237	18596	1
0	1239	18630	1
0	1241	18658	1
0	1243	18690	1
0	1245	18723	1
0	1247	18746	1
0	1249	18772	1
0	1251	18799	1
0	1253	18821	1
0	1255	18850	1
0	1257	18880	1
0	1259	18913	1
0	1261	18948	1
0	1263	18986	1
0	1265	19006	1
0	1267	19039	1
0	1269	19074	1
0	1271	19098	1
0	1273	19126	1
0	1275	19166	1
0	1277	19186	1
0	1279	19225	1
0	1281	19259	1
0	1283	19297	1
0	1285	19321	1
0	1287	19336	1
0	1289	19356	1
0	1291	19390	1
0	1293	19422	1
0	1295	19453	1
0	1297	19481	1
0	1299	19503	1
0	1301	19537	1
0	1303	19564	1
0	1305	19591	1
0	1307	19613	1
0	1309	19652	1
0	1311	19675	1
0	1313	19705	1
0	1315	19730	1
0	1317	19767	1
0	1319	19794	1
0	1321	19817	1
0	1323	19840	1
0	1325	19865	1
0	1327	19894	1
0	1329	19920	1
0	1331	19949	1
0	1333	19981	1
0	1335	20012	1
0	1337	20052	1
0	1339	20073	1
0	1341	20095	1
0	1343	20128	1
0	1345	20151	1
0	1347	20185	1
0	1349	20213	1
0	1351	20242	1
0	1353	20271	1
0	1355	20311	1
0	1357	20353	1
0	1359	20383	1
0	1361	20416	1
0	1363	20447	1
0	1365	20474	1
0	1367	20512	1
0	1369	20533	1
0	1371	20556	1
0	1373	20584	1
0	1375	20614	1
0	1377	20650	1
0	1379	20685	1
0	1381	20721	1
0	1383	20749	1
0	1385	20772	1
0	1387	20803	1
0	1389	20831	1
0	1391	20856	1
0	1393	20890	1
0	1395	20922	1
0	1397	20952	1
0	1399	20980	1
0	1401	21018	1
0	1403	21039	1
0	1405	21068	1
0	1407	21096	1
0	1409	21127	1
0	1411	21149	1
0	1413	21184	1
0	1415	21223	1
0	1417	21248	1
0	1419	21280	1
0	1421	21318	1
0	1423	21339	1
0	1425	21362	1
0	1427	21393	1
0	1429	21411	1
0	1431	21430	1
0	1433	21460	1
0	1435	21492	1
0	1437	21519	1
0	1439	21555	1
0	1441	21587	1
0	1443	21624	1
0	1445	21650	1
0	1447	21681	1
0	1449	21718	1
0	1451	21743	1
0	1453	21771	1
0	1455	21796	1
0	1457	21831	1
0	1459	21861	1
0	1461	21890	1
0	1463	21918	1
0	1465	21949	1
0	1467	21987	1
0	1469	22023	1
0	1471	22050	1
0	1473	22074	1
0	1475	22101	1
0	1477	22128	1
0	1479	22156	1
0	1481	22180	1
0	1483	22211	1
0	1485	22234	1
0	1487	22265	1
0	1489	22286	1
0	1491	22316	1
0	1493	22353	1
0	1495	22381	1
0	1497	22408	1
0	1499	22438	1
0	1501	22456	1
0	1503	22490	1
0	1505	22525	1
0	1507	22551	1
0	1509	22587	1
0	1511	22622	1
0	1513	22650	1
0	1515	22680	1
0	1517	22704	1
0	1519	22736	1
0	1521	22770	1
0	1523	22802	1
0	1525	22828	1
0	1527	22856	1
0	1529	22884	1
0	1531	22917	1
0	1533	22950	1
0	1535	22982	1
0	1537	23006	1
0	1539	23036	1
0	1541	23064	1
0	1543	23095	1
0	1545	23126	1
0	1547	23164	1
0	1549	23194	1
0	1551	23213	1
0	1553	23238	1
0	1555	23275	1
0	1557	23303	1
0	1559	23343	1
0	1561	23374	1
0	1563	23399	1
0	1565	23441	1
0	1567	23466	1
0	1569	23489	1
0	1571	23525	1
0	1573	23564	1
0	1575	23600	1
0	1577	23630	1
0	1579	23666	1
0	1581	23695	1
0	1583	23716	1
0	1585	23753	1
0	1587	23783	1
0	1589	23823	1
0	1591	23862	1
0	1593	23894	1
0	1595	23927	1
0	1597	23962	1
0	1599	23987	1
0	1601	24019	1
0	1603	24045	1
0	1605	24077	1
0	1607	24109	1
0	1609	24142	1
0	1611	24178	1
0	1613	24211	1
0	1615	24239	1
0	1617	24267	1
0	1619	24294	1
0	1621	24335	1
0	1623	24371	1
0	1625	24402	1
0	1627	24432	1
0	1629	24458	1
0	1631	24490	1
0	1633	24524	1
0	1635	24554	1
0	1637	24584	1
0	1639	24613	1
0	1641	24648	1
0	1643	24684	1
0	1645	24702	1
0	1647	24737	1
0	1649	24773	1
0	1651	24799	1
0	1653	24833	1
0	1655	24864	1
0	1657	24883	1
0	1659	24907	1
0	1661	24941	1
0	1663	24970	1
0	1665	24999	1
0	1667	25027	1
