version 2
run Sim3-0-20130106-13:01:00-8650
attr configname Sim3
attr datetime 20130106-13:01:00
attr experiment Sim3
attr inifile omnetpp.ini
attr iterationvars ""
attr iterationvars2 $repetition=0
attr measurement ""
attr network PoissonGeneratorNetwork
attr processid 8650
attr repetition 0
attr replication #0
attr resultdir results
attr runnumber 0
attr seedset 0

vector 0  PoissonGeneratorNetwork.sink  arrivals  ETV
attr interpolationmode  none
0	1	12	1
0	3	19	1
0	5	29	1
0	7	43	1
0	9	54	1
0	11	66	1
0	13	72	1
0	15	84	1
0	17	91	1
0	19	96	1
0	21	105	1
0	23	117	1
0	25	123	1
0	27	128	1
0	29	137	1
0	31	153	1
0	33	168	1
0	35	182	1
0	37	188	1
0	39	195	1
0	41	206	1
0	43	219	1
0	45	232	1
0	47	244	1
0	49	250	1
0	51	258	1
0	53	273	1
0	55	290	1
0	57	301	1
0	59	305	1
0	61	316	1
0	63	322	1
0	65	329	1
0	67	334	1
0	69	349	1
0	71	354	1
0	73	363	1
0	75	372	1
0	77	388	1
0	79	395	1
0	81	406	1
0	83	412	1
0	85	421	1
0	87	430	1
0	89	438	1
0	91	446	1
0	93	459	1
0	95	466	1
0	97	473	1
0	99	483	1
0	101	493	1
0	103	507	1
0	105	518	1
0	107	528	1
0	109	540	1
0	111	547	1
0	113	560	1
0	115	575	1
0	117	582	1
0	119	596	1
0	121	606	1
0	123	613	1
0	125	624	1
0	127	637	1
0	129	652	1
0	131	659	1
0	133	668	1
0	135	675	1
0	137	683	1
0	139	696	1
0	141	705	1
0	143	713	1
0	145	725	1
0	147	737	1
0	149	747	1
0	151	756	1
0	153	766	1
0	155	779	1
0	157	794	1
0	159	803	1
0	161	813	1
0	163	824	1
0	165	831	1
0	167	840	1
0	169	852	1
0	171	861	1
0	173	874	1
0	175	884	1
0	177	889	1
0	179	896	1
0	181	907	1
0	183	915	1
0	185	924	1
0	187	935	1
0	189	943	1
0	191	948	1
0	193	958	1
0	195	969	1
0	197	978	1
0	199	987	1
0	201	995	1
0	203	1003	1
0	205	1010	1
0	207	1021	1
0	209	1038	1
0	211	1049	1
0	213	1062	1
0	215	1070	1
0	217	1076	1
0	219	1088	1
0	221	1099	1
0	223	1108	1
0	225	1114	1
0	227	1129	1
0	229	1138	1
0	231	1150	1
0	233	1159	1
0	235	1166	1
0	237	1171	1
0	239	1182	1
0	241	1199	1
0	243	1218	1
0	245	1226	1
0	247	1235	1
0	249	1245	1
0	251	1249	1
0	253	1258	1
0	255	1270	1
0	257	1280	1
0	259	1291	1
0	261	1305	1
0	263	1321	1
0	265	1332	1
0	267	1345	1
0	269	1356	1
0	271	1364	1
0	273	1372	1
0	275	1383	1
0	277	1393	1
0	279	1403	1
0	281	1411	1
0	283	1420	1
0	285	1427	1
0	287	1440	1
0	289	1452	1
0	291	1464	1
0	293	1471	1
0	295	1480	1
0	297	1492	1
0	299	1508	1
0	301	1521	1
0	303	1528	1
0	305	1543	1
0	307	1552	1
0	309	1563	1
0	311	1573	1
0	313	1584	1
0	315	1594	1
0	317	1607	1
0	319	1617	1
0	321	1628	1
0	323	1639	1
0	325	1646	1
0	327	1656	1
0	329	1671	1
0	331	1676	1
0	333	1690	1
0	335	1699	1
0	337	1712	1
0	339	1720	1
0	341	1732	1
0	343	1743	1
0	345	1755	1
0	347	1766	1
0	349	1772	1
0	351	1776	1
0	353	1786	1
0	355	1796	1
0	357	1808	1
0	359	1819	1
0	361	1828	1
0	363	1846	1
0	365	1862	1
0	367	1873	1
0	369	1882	1
0	371	1895	1
0	373	1904	1
0	375	1907	1
0	377	1918	1
0	379	1930	1
0	381	1946	1
0	383	1960	1
0	385	1970	1
0	387	1981	1
0	389	1993	1
0	391	2008	1
0	393	2014	1
0	395	2018	1
0	397	2033	1
0	399	2042	1
0	401	2057	1
0	403	2070	1
0	405	2080	1
0	407	2092	1
0	409	2112	1
0	411	2125	1
0	413	2132	1
0	415	2138	1
0	417	2156	1
0	419	2164	1
0	421	2175	1
0	423	2189	1
0	425	2195	1
0	427	2205	1
0	429	2219	1
0	431	2225	1
0	433	2238	1
0	435	2243	1
0	437	2247	1
0	439	2255	1
0	441	2267	1
0	443	2281	1
0	445	2294	1
0	447	2311	1
0	449	2320	1
0	451	2339	1
0	453	2349	1
0	455	2357	1
0	457	2369	1
0	459	2375	1
0	461	2381	1
0	463	2390	1
0	465	2401	1
0	467	2416	1
0	469	2425	1
0	471	2435	1
0	473	2445	1
0	475	2457	1
0	477	2470	1
0	479	2483	1
0	481	2493	1
0	483	2501	1
0	485	2512	1
0	487	2523	1
0	489	2538	1
0	491	2550	1
0	493	2558	1
0	495	2573	1
0	497	2584	1
0	499	2593	1
0	501	2604	1
0	503	2621	1
0	505	2636	1
0	507	2647	1
0	509	2658	1
0	511	2667	1
0	513	2679	1
0	515	2685	1
0	517	2690	1
0	519	2700	1
0	521	2711	1
0	523	2728	1
0	525	2736	1
0	527	2747	1
0	529	2759	1
0	531	2770	1
0	533	2780	1
0	535	2795	1
0	537	2810	1
0	539	2822	1
0	541	2833	1
0	543	2845	1
0	545	2857	1
0	547	2865	1
0	549	2876	1
0	551	2889	1
0	553	2902	1
0	555	2917	1
0	557	2930	1
0	559	2947	1
0	561	2959	1
0	563	2968	1
0	565	2976	1
0	567	2991	1
0	569	3001	1
0	571	3013	1
0	573	3033	1
0	575	3043	1
0	577	3053	1
0	579	3067	1
0	581	3079	1
0	583	3085	1
0	585	3096	1
0	587	3109	1
0	589	3117	1
0	591	3131	1
0	593	3135	1
0	595	3151	1
0	597	3162	1
0	599	3169	1
0	601	3181	1
0	603	3189	1
0	605	3195	1
0	607	3206	1
0	609	3215	1
0	611	3221	1
0	613	3227	1
0	615	3238	1
0	617	3250	1
0	619	3265	1
0	621	3274	1
0	623	3281	1
0	625	3290	1
0	627	3299	1
0	629	3308	1
0	631	3319	1
0	633	3332	1
0	635	3341	1
0	637	3350	1
0	639	3364	1
0	641	3374	1
0	643	3384	1
0	645	3389	1
0	647	3400	1
0	649	3412	1
0	651	3420	1
0	653	3436	1
0	655	3445	1
0	657	3460	1
0	659	3469	1
0	661	3482	1
0	663	3499	1
0	665	3507	1
0	667	3519	1
0	669	3526	1
0	671	3541	1
0	673	3551	1
0	675	3558	1
0	677	3575	1
0	679	3585	1
0	681	3593	1
0	683	3606	1
0	685	3611	1
0	687	3624	1
0	689	3638	1
0	691	3653	1
0	693	3669	1
0	695	3679	1
0	697	3693	1
0	699	3704	1
0	701	3715	1
0	703	3732	1
0	705	3743	1
0	707	3753	1
0	709	3762	1
0	711	3773	1
0	713	3791	1
0	715	3803	1
0	717	3812	1
0	719	3823	1
0	721	3834	1
0	723	3844	1
0	725	3854	1
0	727	3866	1
0	729	3880	1
0	731	3888	1
0	733	3897	1
0	735	3902	1
0	737	3918	1
0	739	3929	1
0	741	3939	1
0	743	3949	1
0	745	3954	1
0	747	3969	1
0	749	3977	1
0	751	3988	1
0	753	4001	1
0	755	4013	1
0	757	4021	1
0	759	4029	1
0	761	4044	1
0	763	4057	1
0	765	4072	1
0	767	4081	1
0	769	4091	1
0	771	4099	1
0	773	4114	1
0	775	4127	1
0	777	4142	1
0	779	4153	1
0	781	4160	1
0	783	4169	1
0	785	4178	1
0	787	4186	1
0	789	4197	1
0	791	4204	1
0	793	4217	1
0	795	4229	1
0	797	4242	1
0	799	4255	1
0	801	4265	1
0	803	4279	1
0	805	4284	1
0	807	4295	1
0	809	4310	1
0	811	4325	1
0	813	4338	1
0	815	4351	1
0	817	4364	1
0	819	4371	1
0	821	4376	1
0	823	4385	1
0	825	4400	1
0	827	4412	1
0	829	4421	1
0	831	4431	1
0	833	4444	1
0	835	4456	1
0	837	4466	1
0	839	4474	1
0	841	4487	1
0	843	4495	1
0	845	4507	1
0	847	4525	1
0	849	4540	1
0	851	4555	1
0	853	4565	1
0	855	4573	1
0	857	4584	1
0	859	4594	1
0	861	4601	1
0	863	4612	1
0	865	4622	1
0	867	4628	1
0	869	4641	1
0	871	4656	1
0	873	4665	1
0	875	4671	1
0	877	4681	1
0	879	4695	1
0	881	4700	1
0	883	4707	1
0	885	4718	1
0	887	4726	1
0	889	4734	1
0	891	4742	1
0	893	4752	1
0	895	4769	1
0	897	4782	1
0	899	4798	1
0	901	4808	1
0	903	4816	1
0	905	4824	1
0	907	4831	1
0	909	4847	1
0	911	4856	1
0	913	4870	1
0	915	4872	1
0	917	4881	1
0	919	4889	1
0	921	4904	1
0	923	4920	1
0	925	4930	1
0	927	4945	1
0	929	4955	1
0	931	4966	1
0	933	4975	1
0	935	4986	1
0	937	4994	1
0	939	5004	1
0	941	5012	1
0	943	5023	1
0	945	5037	1
0	947	5050	1
0	949	5064	1
0	951	5075	1
0	953	5089	1
0	955	5098	1
0	957	5103	1
0	959	5112	1
0	961	5126	1
0	963	5140	1
0	965	5149	1
0	967	5157	1
0	969	5172	1
0	971	5183	1
0	973	5198	1
0	975	5208	1
0	977	5222	1
0	979	5233	1
0	981	5241	1
0	983	5250	1
0	985	5259	1
0	987	5262	1
0	989	5268	1
0	991	5282	1
0	993	5295	1
0	995	5306	1
0	997	5317	1
0	999	5326	1
0	1001	5333	1
0	1003	5343	1
0	1005	5351	1
0	1007	5360	1
0	1009	5373	1
0	1011	5381	1
0	1013	5392	1
0	1015	5399	1
0	1017	5413	1
0	1019	5427	1
0	1021	5435	1
0	1023	5447	1
0	1025	5463	1
0	1027	5474	1
0	1029	5487	1
0	1031	5494	1
0	1033	5508	1
0	1035	5522	1
0	1037	5539	1
0	1039	5542	1
0	1041	5549	1
0	1043	5555	1
0	1045	5569	1
0	1047	5584	1
0	1049	5599	1
0	1051	5613	1
0	1053	5622	1
0	1055	5631	1
0	1057	5642	1
0	1059	5653	1
0	1061	5659	1
0	1063	5666	1
0	1065	5672	1
0	1067	5679	1
0	1069	5686	1
0	1071	5696	1
0	1073	5705	1
0	1075	5716	1
0	1077	5720	1
0	1079	5732	1
0	1081	5747	1
0	1083	5759	1
0	1085	5769	1
0	1087	5780	1
0	1089	5795	1
0	1091	5803	1
0	1093	5813	1
0	1095	5825	1
0	1097	5838	1
0	1099	5847	1
0	1101	5856	1
0	1103	5858	1
0	1105	5865	1
0	1107	5875	1
0	1109	5884	1
0	1111	5891	1
0	1113	5902	1
0	1115	5909	1
0	1117	5918	1
0	1119	5928	1
0	1121	5937	1
0	1123	5946	1
0	1125	5955	1
0	1127	5962	1
0	1129	5967	1
0	1131	5973	1
0	1133	5984	1
0	1135	6000	1
0	1137	6011	1
0	1139	6019	1
0	1141	6025	1
0	1143	6031	1
0	1145	6046	1
0	1147	6056	1
0	1149	6063	1
0	1151	6069	1
0	1153	6082	1
0	1155	6089	1
0	1157	6105	1
0	1159	6113	1
0	1161	6120	1
0	1163	6132	1
0	1165	6146	1
0	1167	6156	1
0	1169	6169	1
0	1171	6180	1
0	1173	6188	1
0	1175	6201	1
0	1177	6211	1
0	1179	6224	1
0	1181	6240	1
0	1183	6251	1
0	1185	6264	1
0	1187	6281	1
0	1189	6288	1
0	1191	6298	1
0	1193	6307	1
0	1195	6315	1
