version 2
run SCHRR-0-20130106-13:47:48-9301
attr configname SCHRR
attr datetime 20130106-13:47:48
attr experiment SCHRR
attr inifile omnetpp.ini
attr iterationvars ""
attr iterationvars2 $repetition=0
attr measurement ""
attr network tirtproject.Schedulers.SCHRR
attr processid 9301
attr repetition 0
attr replication #0
attr resultdir results
attr runnumber 0
attr seedset 0

vector 0  SCHRR.sink  arrivals  ETV
attr interpolationmode  none
0	8	1	1
0	16	2.303328915471	1
0	22	4.502394575151	1
0	30	8.347616444292	1
0	36	11.396766602779	1
0	42	12.732056787402	1
0	52	15	1
0	56	16.426580344386	1
0	60	17.432451349552	1
0	64	19	1
0	70	20.625397991605	1
0	76	21.684140706699	1
0	84	22.777960190561	1
0	94	24	1
0	106	25	1
0	110	26	1
0	118	27.5	1
0	126	29	1
0	136	30	1
0	142	31	1
0	150	32.348122107769	1
0	160	33.5	1
0	168	34.5	1
0	174	35.5	1
0	182	37.5	1
0	190	38.802103933287	1
0	198	40.88660998039	1
0	202	41.888886157189	1
0	212	42.944735765848	1
0	216	44.361352310576	1
0	220	45.613959835487	1
0	224	47.5	1
0	230	51	1
0	236	52.379350355424	1
0	246	53.5	1
0	254	54.5	1
0	260	55.5	1
0	270	56.945946220836	1
0	280	58	1
0	290	59	1
0	294	60	1
0	302	61	1
0	308	62	1
0	312	63	1
0	318	64	1
0	322	65	1
0	326	66	1
0	330	67	1
0	338	68	1
0	344	69	1
0	354	70	1
0	360	71.5	1
0	368	72.601337716232	1
0	372	74.15600065404	1
0	384	75.4669730222	1
0	392	77.152631224495	1
0	400	79.5	1
0	406	80.629247866769	1
0	416	82.01256433292	1
0	422	84.5	1
0	426	88.367885714572	1
0	432	90.478774488954	1
0	438	91.5	1
0	448	93.21837843869	1
0	454	94.281959732759	1
0	460	96.611525789935	1
0	472	97.644484277439	1
0	478	99.447359522326	1
0	488	101.408123155223	1
0	496	102.5	1
0	502	104.56242726181	1
0	506	105.814968531351	1
0	518	107.323183762978	1
0	524	108.5	1
0	530	109.813373879496	1
0	538	111.016948569956	1
0	548	113.657153748776	1
0	554	115.642215563294	1
0	562	116.984179761808	1
0	566	119	1
0	578	120.651798375221	1
0	582	122.5	1
0	586	124.751745632404	1
0	594	126.618386102584	1
0	604	128.527127556894	1
0	616	129.747636468256	1
0	624	131.255162641928	1
0	632	132.5	1
0	638	133.5	1
0	644	134.5	1
0	650	135.680320107545	1
0	654	137.367538396302	1
0	658	138.5	1
0	664	139.720873164375	1
0	672	141.5	1
0	676	142.5	1
0	684	143.5	1
0	692	144.5	1
0	698	145.5	1
0	704	146.5	1
0	710	147.5	1
0	714	148.5	1
0	724	150	1
0	736	151.310178815791	1
0	740	152.78448814717	1
0	746	154	1
0	748	155	1
0	754	156.503896458069	1
0	764	158.693543172627	1
0	768	160	1
0	774	162	1
0	782	163.187782220893	1
0	790	164.359284403093	1
0	800	165.5	1
0	806	166.983145994168	1
0	814	168.097756997167	1
0	822	169.139601461987	1
0	828	170.5	1
0	834	171.659490155833	1
0	840	173	1
0	846	174.199621389568	1
0	850	175.457787930499	1
0	854	177	1
0	862	178.025720559201	1
0	868	179.346087377744	1
0	876	180.432143445909	1
0	882	182.494011048828	1
0	892	183.5	1
0	902	184.5	1
0	906	185.5	1
0	910	186.5	1
0	914	187.5	1
0	920	188.856587641201	1
0	926	190	1
0	936	191	1
0	948	192.326712767064	1
0	952	194.099924351564	1
0	956	195.5	1
0	962	197.244921904267	1
