version 2
run SCHWRR-0-20130106-14:03:35-9663
attr configname SCHWRR
attr datetime 20130106-14:03:35
attr experiment SCHWRR
attr inifile omnetpp.ini
attr iterationvars ""
attr iterationvars2 $repetition=0
attr measurement ""
attr network tirtproject.Schedulers.SCHWRR
attr processid 9663
attr repetition 0
attr replication #0
attr resultdir results
attr runnumber 0
attr seedset 0

vector 0  SCHWRR.sink  arrivals  ETV
attr interpolationmode  none
0	8	1	1
0	16	2	1
0	18	3	1
0	24	4	1
0	26	5	1
0	28	6	1
0	30	7	1
0	38	8	1
0	40	9	1
0	42	10	1
0	48	11	1
0	54	12	1
0	56	13	1
0	60	14	1
0	68	15	1
0	72	16	1
0	76	17	1
0	80	18	1
0	82	19	1
0	88	20	1
0	92	21	1
0	100	22	1
0	106	23	1
0	114	24	1
0	126	25	1
0	130	26	1
0	136	27	1
0	142	28	1
0	148	29	1
0	158	30	1
0	164	31	1
0	172	32	1
0	180	33	1
0	188	34	1
0	196	35	1
0	198	36	1
0	206	37	1
0	210	38	1
0	216	39	1
0	222	40	1
