version 2
run networkB-0-20130103-19:26:58-3352
attr configname networkB
attr datetime 20130103-19:26:58
attr experiment networkB
attr inifile omnetpp.ini
attr iterationvars ""
attr iterationvars2 $repetition=0
attr measurement ""
attr network networkB
attr processid 3352
attr repetition 0
attr replication #0
attr resultdir results
attr runnumber 0
attr seedset 0

vector 0  networkB.AC  "Arrivals AC"  ETV
attr interpolationmode  none
vector 1  networkB.sink  arrivals  ETV
attr interpolationmode  none
0	9	1	1
0	13	1.64944634825	1
0	18	2	1
0	24	2.303328915471	1
0	26	2.714906911713	1
0	28	3	1
0	39	4.502394575151	1
0	42	5	1
0	55	8.347616444292	1
0	57	8.502346124792	1
0	59	9	1
0	70	11.396766602779	1
0	77	12	1
0	81	12.732056787402	1
0	83	12.894193276847	1
0	97	15	1
0	100	15.223106651061	1
0	102	15.327667876836	1
0	110	16.426580344386	1
0	116	17.432451349552	1
0	123	19	1
0	134	20.625397991605	1
0	138	21	1
0	144	21.684140706699	1
0	153	22.661004780769	1
0	157	22.777960190561	1
0	159	23	1
0	163	23.159516033935	1
0	172	24	1
0	176	24.245785414813	1
0	188	25	1
0	195	25.365599780566	1
0	197	25.5	1
0	201	25.811019242485	1
0	203	25.93740787891	1
0	206	26	1
0	210	26.5	1
0	220	27.5	1
0	223	28	1
0	227	28.061645075911	1
0	233	29	1
0	239	29.5	1
0	247	30	1
0	254	30.064885598418	1
0	258	30.5	1
0	262	30.922781239492	1
0	264	31	1
0	268	31.30634145359	1
0	272	31.5	1
0	281	32.348122107769	1
0	283	32.5	1
0	287	32.528374359753	1
0	295	33.5	1
0	301	33.857132233503	1
0	304	34	1
0	308	34.5	1
0	314	34.715525201331	1
0	321	35	1
0	324	35.5	1
0	328	35.734183931349	1
0	340	37.5	1
0	342	37.607643811206	1
0	346	37.869701052881	1
0	355	38.802103933287	1
0	357	39.161031149156	1
0	359	39.503630773854	1
0	372	40.88660998039	1
0	376	40.995157078884	1
0	378	41.5	1
0	382	41.888886157189	1
0	395	42.944735765848	1
0	397	43.194817260825	1
0	401	43.5	1
0	403	43.767278812253	1
0	408	44.361352310576	1
0	416	45.613959835487	1
0	423	47.5	1
0	438	51.5	1
0	443	52.379350355424	1
0	445	52.5	1
0	455	53.5	1
0	461	53.574788921706	1
0	464	54.021041742225	1
0	470	54.5	1
0	482	55.330340106247	1
0	484	55.386210159135	1
0	486	55.5	1
0	495	56	1
0	499	56.008807503113	1
0	505	56.945946220836	1
0	507	56.978303025481	1
0	509	57	1
0	515	57.158260367032	1
0	522	58	1
0	526	58.019184003712	1
0	534	58.971013711254	1
0	536	59	1
0	542	59.209766584101	1
0	544	59.456625852899	1
0	546	59.5	1
0	550	60	1
0	561	61	1
0	567	61.5	1
0	573	62	1
0	579	62.971104533435	1
0	581	63	1
0	590	64	1
0	596	64.108643038975	1
0	599	65	1
0	607	66	1
0	613	67	1
1	43	5	1
1	65	10	1
1	98	15	1
1	132	20	1
1	192	25	1
1	251	30	1
1	322	35	1
1	369	40	1
1	413	45	1
1	432	50	1
1	479	55	1
1	554	60	1
1	603	65	1
