version 2
run networkA-0-20130103-19:28:44-784
attr configname networkA
attr datetime 20130103-19:28:44
attr experiment networkA
attr inifile omnetpp.ini
attr iterationvars ""
attr iterationvars2 $repetition=0
attr measurement ""
attr network networkA
attr processid 784
attr repetition 0
attr replication #0
attr resultdir results
attr runnumber 0
attr seedset 0

vector 0  networkA.AC  "Arrivals AC"  ETV
attr interpolationmode  none
vector 1  networkA.sink  arrivals  ETV
attr interpolationmode  none
0	8	1	1
0	13	1.64944634825	1
0	18	2	1
0	25	2.303328915471	1
0	28	2.714906911713	1
0	31	3	1
0	41	4.502394575151	1
0	43	5	1
0	56	8.347616444292	1
0	59	8.502346124792	1
0	61	9	1
0	69	11.396766602779	1
0	75	12	1
0	77	12.732056787402	1
0	79	12.894193276847	1
0	89	15	1
0	91	15.223106651061	1
0	93	15.327667876836	1
0	98	16	1
0	101	16.426580344386	1
0	107	17.432451349552	1
0	111	19	1
0	117	20.625397991605	1
0	121	21	1
0	125	21.684140706699	1
0	133	22.661004780769	1
0	135	22.777960190561	1
0	137	23	1
0	141	23.159516033935	1
0	148	24	1
0	153	24.245785414813	1
0	163	25	1
0	164	25	1
0	171	25.365599780566	1
0	173	25.5	1
0	177	25.811019242485	1
0	179	25.93740787891	1
0	181	26	1
0	183	26.5	1
0	191	27.5	1
0	193	28	1
0	197	28.061645075911	1
0	201	29	1
0	207	29.5	1
0	213	30	1
0	217	30.064885598418	1
0	221	30.5	1
0	225	30.922781239492	1
0	227	31	1
0	229	31.30634145359	1
0	233	31.5	1
0	240	32.348122107769	1
0	243	32.5	1
0	247	32.528374359753	1
0	255	33.5	1
0	261	33.857132233503	1
0	263	34	1
0	267	34.5	1
0	271	34.715525201331	1
0	277	35	1
0	279	35.5	1
0	281	35.734183931349	1
0	283	36	1
0	291	37.5	1
0	293	37.607643811206	1
0	297	37.869701052881	1
0	303	38.802103933287	1
0	305	39.161031149156	1
0	307	39.503630773854	1
0	316	40.88660998039	1
0	321	40.995157078884	1
0	323	41.5	1
0	327	41.888886157189	1
0	337	42.944735765848	1
0	339	43.194817260825	1
0	343	43.5	1
0	345	43.767278812253	1
0	347	44.361352310576	1
0	351	45.613959835487	1
0	355	47.5	1
0	362	51	1
0	367	51.5	1
0	373	52.379350355424	1
0	375	52.5	1
0	383	53.5	1
0	387	53.574788921706	1
0	389	54.021041742225	1
0	395	54.5	1
0	403	55.330340106247	1
0	405	55.386210159135	1
0	407	55.5	1
0	414	56	1
0	419	56.008807503113	1
0	423	56.945946220836	1
0	425	56.978303025481	1
0	427	57	1
0	435	57.158260367032	1
0	439	58	1
1	23	2	1
1	34	3	1
1	40	4	1
1	46	5	1
1	48	6	1
1	64	9.347616444292	1
1	106	17	1
1	170	25	1
1	254	33.348122107769	1
1	326	41.88660998039	1
1	372	52	1
1	432	57	1
