version 2
run networkB-0-20130111-19:20:58-7080
attr configname networkB
attr datetime 20130111-19:20:58
attr experiment networkB
attr inifile omnetpp.ini
attr iterationvars ""
attr iterationvars2 $repetition=0
attr measurement ""
attr network networkB
attr processid 7080
attr repetition 0
attr replication #0
attr resultdir results
attr runnumber 0
attr seedset 0

vector 0  networkB.OnOff  "Changes vector"  ETV
attr interpolationmode  none
vector 1  networkB.AdmissionControl  "Arrivals AC"  ETV
attr interpolationmode  none
vector 2  networkB.sink  arrivals  ETV
attr interpolationmode  none
0	1	0	1
0	5	0.64944634825	1
0	5	0.64944634825	0
0	10	1.402120461562	0
0	10	1.402120461562	1
0	30	4.00037454741	1
0	42	5.787862210848	1
0	42	5.787862210848	0
0	50	7.828754426759	0
0	54	8.964693368469	0
0	58	10.239921070692	0
0	61	11.112242265734	0
0	62	11.883076924201	0
0	66	12.620904215956	0
0	66	12.620904215956	1
0	72	13.956194400579	1
0	75	14.200242891315	1
0	75	14.200242891315	0
0	76	14.345520918607	0
0	77	14.737291729283	0
0	77	14.737291729283	1
0	79	14.899428218728	1
0	79	14.899428218728	0
0	88	15.150870150802	0
0	89	15.594274179422	0
0	89	15.594274179422	1
0	101	16.983316869213	1
0	101	16.983316869213	0
0	102	17.919378428984	0
0	102	17.919378428984	1
0	105	18.312490986288	1
0	105	18.312490986288	0
0	106	18.889815297094	0
0	106	18.889815297094	1
0	126	23.34431214327	1
0	128	23.972253724261	1
0	128	23.972253724261	0
0	130	24.252530732739	0
0	130	24.252530732739	1
0	134	24.425658188885	1
0	136	24.542613598677	1
0	138	24.924169442051	1
0	138	24.924169442051	0
0	152	26.430804775323	0
0	157	27.405906709479	0
0	158	27.988785098345	0
0	161	28.116841863656	0
0	162	28.772488148019	0
0	163	29.939361674567	0
0	163	29.939361674567	1
0	177	32.063598871568	1
0	179	32.896442387634	1
0	188	34.899682910141	1
0	194	35.757578551215	1
0	194	35.757578551215	0
0	203	38.406834479891	0
0	213	40.254162130892	0
0	214	40.412503637122	0
0	215	40.727225297976	0
0	215	40.727225297976	1
0	227	42.055983171726	1
0	227	42.055983171726	0
0	230	43.46700758102	0
0	231	43.971351387607	0
0	231	43.971351387607	1
0	247	46.235084963467	1
0	247	46.235084963467	0
0	258	50.07809154671	0
0	259	50.58040234497	0
0	265	51.544855910463	0
0	265	51.544855910463	1
0	267	51.903783126332	1
0	267	51.903783126332	0
0	271	52.983103324987	0
0	271	52.983103324987	1
0	273	53.325702949685	1
0	273	53.325702949685	0
0	277	54.288078005456	0
0	278	54.848039075529	0
0	279	54.993613053976	0
0	279	54.993613053976	1
0	283	55.347837186221	1
0	283	55.347837186221	0
0	291	56.191725658811	0
0	295	59.664261138093	0
0	301	60.228871639213	0
0	301	60.228871639213	1
0	303	60.801333190641	1
0	303	60.801333190641	0
0	313	63.026247847866	0
0	314	63.131129683466	0
0	314	63.131129683466	1
0	323	64.383737208377	1
0	323	64.383737208377	0
0	327	65.893560663986	0
0	327	65.893560663986	1
0	336	67.895547159511	1
0	336	67.895547159511	0
0	337	67.967222543823	0
0	337	67.967222543823	1
0	344	69.162661110105	1
0	344	69.162661110105	0
0	345	69.766960181952	0
0	353	71.047294385764	0
0	354	71.064062151756	0
0	355	71.326391460922	0
0	359	72.77418554291	0
0	372	75.658797295012	0
0	372	75.658797295012	1
0	383	77.734828355454	1
0	385	77.767185160099	1
0	387	77.94714250165	1
0	387	77.94714250165	0
0	395	78.918624659744	0
0	395	78.918624659744	1
0	397	79.779548296424	1
0	397	79.779548296424	0
0	414	84.658681184417	0
0	414	84.658681184417	1
0	430	88.173159864953	1
0	430	88.173159864953	0
0	431	88.842273588642	0
0	431	88.842273588642	1
0	444	90.970943683173	1
0	450	91.168911418506	1
0	450	91.168911418506	0
0	451	91.238529089579	0
0	451	91.238529089579	1
0	462	92.376067595119	1
0	468	93.145187396215	1
0	468	93.145187396215	0
0	471	93.754020309952	0
0	471	93.754020309952	1
0	485	96.122938480788	1
0	487	96.606576868277	1
0	494	97.49407879676	1
0	494	97.49407879676	0
0	497	97.867842090576	0
0	497	97.867842090576	1
0	502	98.422012919624	1
0	502	98.422012919624	0
0	508	100.587776600498	0
0	508	100.587776600498	1
0	516	101.72683425117	1
0	516	101.72683425117	0
0	523	103.849580905111	0
0	525	104.402419275762	0
0	525	104.402419275762	1
0	527	104.871095751738	1
0	527	104.871095751738	0
0	532	105.493925061502	0
0	533	105.819141079478	0
0	533	105.819141079478	1
0	538	106.70292673551	1
0	538	106.70292673551	0
0	544	108.696965936786	0
0	547	109.915965281967	0
0	547	109.915965281967	1
0	554	110.538002201048	1
0	554	110.538002201048	0
0	560	111.818426555026	0
0	562	113.192769569446	0
0	562	113.192769569446	1
0	564	113.289937247813	1
0	566	113.535135340455	1
0	577	114.918451806606	1
0	583	115.25660652145	1
0	585	115.362293695554	1
0	585	115.362293695554	0
0	586	115.378859789975	0
0	586	115.378859789975	1
0	601	118.031418305495	1
0	603	118.696226055046	1
0	619	122.490249838133	1
0	619	122.490249838133	0
0	623	125.326890031508	0
0	631	126.932348794575	0
0	635	127.246346692638	0
0	636	127.774813920939	0
0	638	129.501447300681	0
0	639	129.711980588885	0
0	640	129.840560826161	0
0	647	133.78819409372	0
0	649	134.309272914804	0
0	649	134.309272914804	1
0	653	135.151409217641	1
0	653	135.151409217641	0
0	667	138.391372184541	0
0	667	138.391372184541	1
0	669	139.153795868755	1
0	669	139.153795868755	0
0	672	139.517038087656	0
0	678	141.661423552169	0
0	678	141.661423552169	1
0	680	141.949936262517	1
0	680	141.949936262517	0
0	686	143.064823684424	0
0	686	143.064823684424	1
0	688	143.961152889444	1
0	694	144.608327593487	1
0	696	144.912299152715	1
0	702	145.521363608038	1
0	702	145.521363608038	0
0	710	146.671104995787	0
0	710	146.671104995787	1
0	719	148.585947253429	1
0	723	149.779960624024	1
0	732	151.288175855651	1
0	732	151.288175855651	0
0	734	152.790588649361	0
0	734	152.790588649361	1
0	736	153.090913729646	1
0	736	153.090913729646	0
0	737	153.55902018288	0
0	737	153.55902018288	1
0	742	154.444780828909	1
0	742	154.444780828909	0
0	745	154.763364676788	0
0	745	154.763364676788	1
0	753	155.226754704327	1
0	757	155.789579906144	1
0	757	155.789579906144	0
0	766	156.502964188944	0
0	767	157.271217530811	0
0	767	157.271217530811	1
0	772	158.415012909929	1
0	772	158.415012909929	0
0	773	158.740183780417	0
0	773	158.740183780417	1
0	775	158.878137012346	1
0	775	158.878137012346	0
0	776	159.376829345216	0
0	776	159.376829345216	1
0	788	162.509658834762	1
0	788	162.509658834762	0
0	789	162.716844017013	0
0	789	162.716844017013	1
0	799	165.060083947105	1
0	799	165.060083947105	0
0	800	165.615742860263	0
0	800	165.615742860263	1
0	807	166.256716405526	1
0	811	166.625299345136	1
0	813	166.890392446542	1
0	813	166.890392446542	0
0	818	167.590418082657	0
0	822	169.540394994503	0
0	826	170.151452555788	0
0	826	170.151452555788	1
0	833	173.185395128185	1
0	836	174.042830230798	1
0	844	175.761899542586	1
0	844	175.761899542586	0
0	856	178.157079331975	0
0	857	178.654288618317	0
0	857	178.654288618317	1
0	859	179.413253392565	1
0	870	181.279893862745	1
0	873	182.048356440136	1
0	879	183.188635317055	1
0	879	183.188635317055	0
0	881	184.128137302918	0
0	882	184.23180813956	0
0	883	184.8372419212	0
0	883	184.8372419212	1
0	889	185.232807521595	1
0	893	185.952452419283	1
0	901	186.242725834406	1
0	903	186.492676651055	1
0	905	186.784622722783	1
0	905	186.784622722783	0
0	906	186.925098439738	0
0	907	186.937207684799	0
0	910	187.059922692115	0
0	923	190.719484810576	0
0	930	192.248423681287	0
0	930	192.248423681287	1
0	932	192.800225802925	1
0	936	193.358552592189	1
0	945	195.087672229871	1
0	947	195.62357102521	1
0	952	196.070710927807	1
0	952	196.070710927807	0
0	957	197.834798319995	0
0	957	197.834798319995	1
0	965	200.424624465492	1
0	967	200.471723736547	1
0	967	200.471723736547	0
0	968	200.736506009885	0
0	973	201.165013614064	0
0	983	204.17998188625	0
0	983	204.17998188625	1
0	985	204.648860041877	1
0	993	205.788655448541	1
0	995	205.977220172792	1
0	995	205.977220172792	0
0	999	206.573770089668	0
0	1002	206.936848929852	0
0	1002	206.936848929852	1
0	1007	208.764375197668	1
0	1007	208.764375197668	0
0	1008	209.462312746499	0
0	1008	209.462312746499	1
0	1018	212.319738094315	1
0	1018	212.319738094315	0
0	1021	213.324853742887	0
0	1021	213.324853742887	1
0	1027	214.555572593917	1
0	1027	214.555572593917	0
0	1028	214.629078971335	0
0	1028	214.629078971335	1
0	1030	214.975512298829	1
0	1030	214.975512298829	0
0	1033	215.140805311149	0
0	1041	216.331786764545	0
0	1041	216.331786764545	1
0	1045	217.22883977865	1
0	1045	217.22883977865	0
0	1049	219.499549886046	0
0	1053	220.366841904876	0
0	1053	220.366841904876	1
0	1064	224.086250215775	1
0	1064	224.086250215775	0
0	1065	224.457865970602	0
0	1068	225.202244231999	0
0	1072	226.590921505866	0
0	1073	226.996647849732	0
0	1079	229.575760980517	0
0	1083	230.064869391137	0
0	1088	231.038747982616	0
0	1089	231.069449755627	0
0	1092	232.308486263005	0
0	1093	232.316401609511	0
0	1093	232.316401609511	1
0	1095	232.341234817257	1
0	1095	232.341234817257	0
0	1099	234.893711310804	0
0	1100	234.987466698413	0
0	1103	235.508245563283	0
0	1103	235.508245563283	1
0	1108	236.062514036696	1
0	1112	237.035986580341	1
0	1116	237.363196961667	1
0	1118	237.598602828171	1
0	1120	237.721565395058	1
0	1127	238.582280102571	1
0	1127	238.582280102571	0
0	1134	239.356796890505	0
0	1143	242.647445720764	0
0	1144	242.664461344493	0
0	1145	243.245469999952	0
0	1145	243.245469999952	1
0	1147	243.95842647908	1
0	1149	243.987958290243	1
0	1166	246.507846984089	1
0	1168	247.282460720445	1
0	1177	249.46517460973	1
0	1186	250.60679013325	1
0	1196	254.057800262609	1
0	1198	254.438311211171	1
0	1198	254.438311211171	0
0	1199	254.721383647018	0
0	1199	254.721383647018	1
0	1206	255.548709570621	1
0	1210	255.723619830716	1
0	1217	256.634765638786	1
0	1217	256.634765638786	0
0	1220	256.90663147736	0
0	1220	256.90663147736	1
0	1222	257.776246838197	1
0	1226	257.933918891026	1
0	1231	258.342836420272	1
0	1231	258.342836420272	0
0	1232	258.405859864529	0
0	1232	258.405859864529	1
0	1244	260.78892813772	1
0	1244	260.78892813772	0
0	1248	262.135555426256	0
0	1252	264.418949460675	0
0	1252	264.418949460675	1
0	1267	268.307594183444	1
0	1267	268.307594183444	0
0	1268	268.82379763838	0
0	1269	269.096148864734	0
0	1270	269.818751102269	0
0	1270	269.818751102269	1
0	1275	270.277502404915	1
0	1279	270.887264577773	1
0	1285	271.298965155645	1
0	1290	272.197367522081	1
0	1290	272.197367522081	0
0	1293	272.635106978194	0
0	1293	272.635106978194	1
0	1297	273.705189467821	1
0	1297	273.705189467821	0
0	1299	274.761630462002	0
0	1299	274.761630462002	1
0	1305	275.838020921419	1
0	1312	276.344284888501	1
0	1312	276.344284888501	0
0	1313	276.662054229882	0
0	1313	276.662054229882	1
0	1315	276.747675023992	1
0	1329	278.196996893467	1
0	1329	278.196996893467	0
0	1330	278.764884586586	0
0	1331	279.158101873576	0
0	1335	280.033740671666	0
0	1339	282.789953749143	0
0	1341	284.674818363347	0
0	1341	284.674818363347	1
0	1354	287.421070233571	1
0	1354	287.421070233571	0
0	1356	289.711327453471	0
0	1356	289.711327453471	1
0	1358	289.720298840805	1
0	1363	290.409009684761	1
0	1363	290.409009684761	0
0	1370	291.279089595128	0
0	1371	291.555577279229	0
0	1371	291.555577279229	1
0	1373	291.740733332714	1
0	1383	293.70385662227	1
0	1383	293.70385662227	0
0	1394	297.122993124956	0
0	1394	297.122993124956	1
0	1396	297.640160052026	1
0	1396	297.640160052026	0
0	1400	298.150672627961	0
0	1400	298.150672627961	1
0	1402	298.282884227789	1
0	1408	299.533832888447	1
0	1417	300.553228076515	1
0	1417	300.553228076515	0
0	1426	302.281487449482	0
0	1426	302.281487449482	1
0	1428	302.800741174362	1
0	1428	302.800741174362	0
0	1431	303.320563119242	0
0	1432	303.707760586483	0
0	1432	303.707760586483	1
0	1434	303.738168580247	1
0	1443	305.074736997569	1
0	1443	305.074736997569	0
0	1444	305.831591314795	0
0	1445	305.920677272285	0
0	1445	305.920677272285	1
0	1454	307.016327142534	1
0	1456	307.781866224808	1
0	1464	308.299789669878	1
0	1472	309.772402532421	1
0	1477	310.239555758881	1
0	1479	310.491695435313	1
0	1479	310.491695435313	0
0	1480	310.575655475346	0
0	1480	310.575655475346	1
0	1482	310.664826557614	1
0	1482	310.664826557614	0
0	1483	310.67355445392	0
0	1484	310.69881557572	0
0	1484	310.69881557572	1
0	1488	310.85463476183	1
0	1496	311.575687166249	1
0	1496	311.575687166249	0
0	1499	311.827561950942	0
0	1499	311.827561950942	1
0	1503	311.884245832099	1
0	1503	311.884245832099	0
0	1508	314.305582478542	0
0	1508	314.305582478542	1
0	1524	316.467987421267	1
0	1529	318.728387868642	1
0	1536	320.777125862215	1
0	1536	320.777125862215	0
0	1539	321.878521940522	0
0	1554	326.248521691949	0
0	1554	326.248521691949	1
0	1559	328.158076710452	1
0	1559	328.158076710452	0
0	1560	328.661502825906	0
0	1561	328.709440025488	0
0	1561	328.709440025488	1
0	1575	332.240681425979	1
0	1581	333.400197391984	1
0	1583	333.955229117298	1
0	1587	334.053828617496	1
0	1587	334.053828617496	0
0	1601	337.89574492096	0
0	1601	337.89574492096	1
0	1604	338.744011730799	1
0	1604	338.744011730799	0
0	1610	340.234260817477	0
0	1610	340.234260817477	1
0	1617	342.537867694106	1
0	1621	343.055896751224	1
0	1623	343.299826421085	1
0	1625	343.481405638745	1
0	1643	346.042199553512	1
0	1645	346.390448187692	1
0	1645	346.390448187692	0
0	1646	346.993926980121	0
0	1649	347.675062258219	0
0	1651	349.180913401299	0
0	1659	351.040319973717	0
0	1667	354.746310611038	0
0	1668	354.860171268343	0
0	1671	355.700004769728	0
0	1672	355.983106598718	0
0	1672	355.983106598718	1
0	1683	358.721129893991	1
0	1687	359.009343061899	1
0	1687	359.009343061899	0
0	1695	360.030175480951	0
0	1698	361.211580879542	0
0	1702	362.432861056447	0
0	1706	364.711170799254	0
0	1706	364.711170799254	1
0	1718	366.180704115123	1
0	1718	366.180704115123	0
0	1719	366.569337681354	0
0	1720	367.514355671965	0
0	1720	367.514355671965	1
0	1722	367.97263023502	1
0	1733	369.268086898946	1
0	1733	369.268086898946	0
0	1734	369.822171043793	0
0	1734	369.822171043793	1
0	1739	370.055684749831	1
0	1739	370.055684749831	0
0	1740	370.148072268586	0
0	1740	370.148072268586	1
0	1746	371.069951526865	1
0	1746	371.069951526865	0
0	1752	372.69396197066	0
0	1752	372.69396197066	1
0	1758	373.993161303092	1
0	1758	373.993161303092	0
0	1773	375.081777476145	0
0	1778	375.691848267421	0
0	1778	375.691848267421	1
0	1780	375.805252989613	1
0	1780	375.805252989613	0
0	1802	377.505376918877	0
0	1802	377.505376918877	1
0	1807	378.032545708573	1
0	1807	378.032545708573	0
0	1810	378.500169785841	0
0	1813	379.225093222149	0
0	1823	381.423858511814	0
0	1827	382.576269531191	0
0	1838	384.740896706867	0
0	1838	384.740896706867	1
0	1842	385.155853289591	1
0	1842	385.155853289591	0
0	1850	386.072676326887	0
0	1850	386.072676326887	1
0	1852	386.369623385668	1
0	1852	386.369623385668	0
0	1857	387.385336058724	0
0	1857	387.385336058724	1
0	1864	388.815555406981	1
0	1868	389.700772251632	1
0	1868	389.700772251632	0
0	1876	391.359365638537	0
0	1879	391.951540442514	0
0	1887	394.416300578935	0
0	1890	394.838704028337	0
0	1890	394.838704028337	1
0	1901	396.848212645037	1
0	1903	397.430393698173	1
0	1908	398.096724574196	1
0	1912	398.691600830087	1
0	1912	398.691600830087	0
0	1917	399.530574113015	0
0	1917	399.530574113015	1
0	1928	401.546391577352	1
0	1928	401.546391577352	0
0	1934	402.534540230517	0
0	1938	403.611198879369	0
0	1940	404.902161584955	0
0	1940	404.902161584955	1
0	1944	405.081872644198	1
0	1944	405.081872644198	0
0	1950	406.461087994935	0
0	1951	407.148962766417	0
0	1951	407.148962766417	1
0	1953	407.240401414458	1
0	1953	407.240401414458	0
0	1961	409.231617054953	0
0	1968	412.131115708629	0
0	1969	412.859529684038	0
0	1969	412.859529684038	1
0	1973	413.668413372655	1
0	1979	414.073486601837	1
0	1979	414.073486601837	0
0	1980	414.178550434738	0
0	1980	414.178550434738	1
0	1984	414.824030205763	1
0	1999	416.538953309863	1
0	2004	418.5302098012	1
0	2006	418.601546807615	1
0	2012	419.824736548165	1
0	2012	419.824736548165	0
0	2016	420.197018331303	0
0	2016	420.197018331303	1
0	2022	421.465090255157	1
0	2024	421.874529567826	1
0	2031	423.175642205687	1
0	2040	424.864120033711	1
0	2040	424.864120033711	0
0	2045	425.288012374035	0
0	2046	425.902292652651	0
0	2046	425.902292652651	1
0	2052	426.291392711055	1
0	2052	426.291392711055	0
0	2053	426.671922421148	0
0	2056	427.330830967985	0
0	2056	427.330830967985	1
0	2058	427.402523186038	1
0	2065	429.515921470321	1
0	2065	429.515921470321	0
0	2069	430.843244442809	0
0	2069	430.843244442809	1
0	2073	431.037435421589	1
0	2084	433.836958190053	1
0	2084	433.836958190053	0
0	2086	434.731158180267	0
0	2086	434.731158180267	1
0	2095	437.278609431158	1
0	2095	437.278609431158	0
0	2099	438.914719171754	0
0	2099	438.914719171754	1
0	2101	438.926965010597	1
0	2101	438.926965010597	0
0	2103	439.316797257114	0
0	2111	441.209388586183	0
0	2111	441.209388586183	1
0	2118	442.398556660689	1
0	2122	443.051920127902	1
0	2122	443.051920127902	0
0	2125	443.938572262509	0
0	2125	443.938572262509	1
0	2135	446.220922827494	1
0	2148	448.750054267461	1
0	2150	448.795025935399	1
0	2165	450.911309783437	1
0	2165	450.911309783437	0
0	2170	451.191521261542	0
0	2198	454.263609901766	0
0	2198	454.263609901766	1
0	2248	460.491042069744	1
0	2248	460.491042069744	0
0	2253	460.566578530653	0
0	2253	460.566578530653	1
0	2263	461.837364650031	1
0	2266	462.268136563109	1
0	2266	462.268136563109	0
0	2269	462.561678966454	0
0	2269	462.561678966454	1
0	2280	464.680748919241	1
0	2280	464.680748919241	0
0	2283	465.448192842278	0
0	2283	465.448192842278	1
0	2292	466.051006746655	1
0	2294	466.407952382938	1
0	2294	466.407952382938	0
0	2301	466.970274807904	0
0	2301	466.970274807904	1
0	2309	467.648794356386	1
0	2309	467.648794356386	0
0	2317	468.0501686316	0
0	2317	468.0501686316	1
0	2319	468.064130699854	1
0	2321	468.725300383977	1
0	2321	468.725300383977	0
0	2326	469.021167591163	0
0	2331	469.393143599588	0
0	2332	469.524006535366	0
0	2332	469.524006535366	1
0	2339	470.180581177849	1
0	2339	470.180581177849	0
0	2340	470.276792672018	0
0	2340	470.276792672018	1
0	2344	470.537217741506	1
0	2344	470.537217741506	0
0	2353	471.693718507661	0
0	2353	471.693718507661	1
0	2360	472.492347338097	1
0	2360	472.492347338097	0
0	2365	472.57931251578	0
0	2365	472.57931251578	1
0	2383	474.931368400851	1
0	2389	475.136485376362	1
0	2389	475.136485376362	0
0	2390	475.25178820022	0
0	2390	475.25178820022	1
0	2392	475.55919635038	1
0	2392	475.55919635038	0
0	2409	479.251870071593	0
0	2418	481.840003737963	0
0	2418	481.840003737963	1
0	2420	481.96815232386	1
0	2420	481.96815232386	0
0	2426	483.374245840926	0
0	2426	483.374245840926	1
0	2435	485.537259039981	1
0	2435	485.537259039981	0
0	2443	486.960153301457	0
0	2458	490.373066564139	0
0	2471	492.020302567172	0
0	2471	492.020302567172	1
0	2473	492.49086704338	1
0	2473	492.49086704338	0
0	2478	493.515670288301	0
0	2478	493.515670288301	1
0	2485	494.774566293453	1
0	2515	498.598291867122	1
0	2515	498.598291867122	0
0	2516	498.879697601485	0
0	2516	498.879697601485	1
0	2520	499.876200541932	1
0	2549	506.087814918319	1
0	2554	508.329989575427	1
0	2560	509.185800895681	1
0	2560	509.185800895681	0
0	2569	510.33694865983	0
0	2570	510.445030967111	0
0	2570	510.445030967111	1
0	2572	510.626900109193	1
0	2574	510.901982422951	1
0	2574	510.901982422951	0
0	2577	511.151121318121	0
0	2577	511.151121318121	1
0	2586	512.387963581203	1
0	2592	513.856048494035	1
0	2592	513.856048494035	0
0	2598	514.029680367823	0
0	2598	514.029680367823	1
0	2600	514.342624221526	1
0	2614	515.953340940293	1
0	2623	517.706679644394	1
0	2625	517.768911861621	1
0	2625	517.768911861621	0
0	2641	520.053581000577	0
0	2654	521.901287620891	0
0	2654	521.901287620891	1
0	2661	522.581697473428	1
0	2669	523.541262451942	1
0	2669	523.541262451942	0
0	2683	526.230681840358	0
0	2683	526.230681840358	1
0	2692	528.119314796792	1
0	2699	530.543512550853	1
0	2699	530.543512550853	0
0	2703	532.16479915354	0
0	2703	532.16479915354	1
0	2705	532.164859725335	1
0	2705	532.164859725335	0
0	2708	533.20674162423	0
0	2712	534.324197825921	0
0	2715	534.682744410527	0
0	2721	536.092788701265	0
0	2722	536.512739412536	0
0	2722	536.512739412536	1
0	2727	538.481073852711	1
0	2727	538.481073852711	0
0	2732	539.539503661113	0
0	2732	539.539503661113	1
0	2743	541.154330455595	1
0	2745	541.262350001612	1
0	2745	541.262350001612	0
0	2750	542.791472235876	0
0	2750	542.791472235876	1
0	2752	542.854297267872	1
0	2752	542.854297267872	0
0	2753	543.014910875823	0
0	2757	544.498858342849	0
0	2760	545.33747704692	0
0	2760	545.33747704692	1
0	2779	549.411968294968	1
0	2779	549.411968294968	0
0	2791	550.88705534224	0
0	2791	550.88705534224	1
0	2799	551.329660216384	1
0	2799	551.329660216384	0
0	2802	551.882791437503	0
0	2810	552.974022354092	0
0	2810	552.974022354092	1
0	2816	553.063722364166	1
0	2816	553.063722364166	0
0	2826	554.062630134076	0
0	2835	555.10201882313	0
0	2835	555.10201882313	1
0	2837	555.326351275577	1
0	2843	555.738600649547	1
0	2843	555.738600649547	0
0	2871	559.671326384197	0
0	2883	561.192669749239	0
0	2884	561.349833171601	0
0	2900	566.29562086579	0
0	2901	566.673989572857	0
0	2905	569.006815890111	0
0	2906	569.974540928233	0
0	2911	570.142237476847	0
0	2916	571.755676382961	0
0	2917	571.863614457788	0
0	2921	572.209176194501	0
0	2921	572.209176194501	1
0	2923	572.359703515457	1
0	2923	572.359703515457	0
0	2924	572.761071478451	0
0	2925	572.813473877255	0
0	2925	572.813473877255	1
0	2929	573.215847088536	1
0	2931	573.601989513973	1
0	2931	573.601989513973	0
0	2942	576.53582121178	0
0	2943	576.992284825805	0
0	2943	576.992284825805	1
0	2945	577.017365795367	1
0	2945	577.017365795367	0
0	2946	577.035294229743	0
0	2960	580.208855362437	0
0	2964	582.366131831186	0
0	2965	583.832142924633	0
0	2969	585.076488002483	0
0	2969	585.076488002483	1
0	2971	585.131719087052	1
0	2973	585.6362690151	1
0	2975	585.819513979846	1
0	2992	587.544946004554	1
0	2994	587.559300042521	1
0	2994	587.559300042521	0
0	3000	589.598352875192	0
0	3001	589.989992476338	0
0	3001	589.989992476338	1
0	3011	591.541938241421	1
0	3011	591.541938241421	0
0	3012	591.719213428983	0
0	3013	591.804315109054	0
0	3015	592.524185634829	0
0	3015	592.524185634829	1
0	3017	592.774353264168	1
0	3017	592.774353264168	0
0	3018	593.038731001339	0
0	3018	593.038731001339	1
0	3022	593.78510311342	1
0	3022	593.78510311342	0
0	3026	594.056286222961	0
0	3027	594.756355868686	0
0	3027	594.756355868686	1
0	3029	594.974977344303	1
0	3029	594.974977344303	0
0	3032	595.002428941974	0
0	3033	595.090362287279	0
0	3033	595.090362287279	1
0	3037	595.81835224412	1
0	3037	595.81835224412	0
0	3043	596.858197425699	0
0	3043	596.858197425699	1
0	3045	597.495355217122	1
0	3045	597.495355217122	0
0	3046	597.496072435017	0
0	3046	597.496072435017	1
0	3048	597.846895925085	1
0	3048	597.846895925085	0
0	3056	598.798042438714	0
1	8	1	1
1	13	2	1
1	17	2.402120461562	1
1	19	3	1
1	26	4	1
1	32	4.5	1
1	35	5	1
1	40	5.00037454741	1
1	44	6	1
1	52	8	1
1	68	13	1
1	70	13.620904215956	1
1	80	14.956194400579	1
1	91	15.737291729283	1
1	95	16	1
1	99	16.594274179422	1
1	108	18.919378428984	1
1	112	19.889815297094	1
1	116	20	1
1	124	23	1
1	132	24.34431214327	1
1	141	25.252530732739	1
1	143	25.425658188885	1
1	145	25.542613598677	1
1	155	27	1
1	168	30.939361674567	1
1	175	32	1
1	181	33.063598871568	1
1	183	33.896442387634	1
1	191	35	1
1	195	35.899682910141	1
1	204	39	1
1	218	41	1
1	222	41.727225297976	1
1	228	43	1
1	236	44.971351387607	1
1	239	45	1
1	248	47	1
1	261	51	1
1	269	52.544855910463	1
1	274	53.983103324987	1
1	284	55.993613053976	1
1	292	57	1
1	304	61	1
1	308	61.228871639213	1
1	319	64	1
1	321	64.131129683466	1
1	332	66.893560663986	1
1	340	68	1
1	342	68.967222543823	1
1	357	72	1
1	365	74	1
1	375	76	1
1	379	76.658797295012	1
1	389	78	1
1	391	78.734828355454	1
1	393	78.767185160099	1
1	398	79.918624659744	1
1	411	82	1
1	420	85.658681184417	1
1	423	86	1
1	433	89	1
1	437	89.842273588642	1
1	441	90	1
1	453	91.970943683173	1
1	456	92	1
1	460	92.238529089579	1
1	464	93	1
1	469	93.376067595119	1
1	474	94	1
1	476	94.754020309952	1
1	492	97.122938480788	1
1	495	97.606576868277	1
1	500	98	1
1	503	98.867842090576	1
1	514	101.587776600498	1
1	520	102	1
1	530	105.402419275762	1
1	539	106.819141079478	1
1	545	109	1
1	555	110.915965281967	1
1	571	114.192769569446	1
1	573	114.289937247813	1
1	575	114.535135340455	1
1	580	115	1
1	588	115.918451806606	1
1	593	116.25660652145	1
1	595	116.378859789975	1
1	607	119.031418305495	1
1	609	119.696226055046	1
1	613	120	1
1	633	127	1
1	654	135.309272914804	1
1	663	137	1
1	670	139.391372184541	1
1	682	142.661423552169	1
1	692	144.064823684424	1
1	698	144.961152889444	1
1	703	145.608327593487	1
1	705	145.912299152715	1
1	714	147.671104995787	1
1	717	148	1
1	721	149.585947253429	1
1	728	150.779960624024	1
1	739	153.790588649361	1
1	743	154.55902018288	1
1	755	155.763364676788	1
1	760	156	1
1	764	156.226754704327	1
1	770	158.271217530811	1
1	778	159.740183780417	1
1	783	160.376829345216	1
1	791	163.716844017013	1
1	809	166.615742860263	1
1	814	167	1
1	816	167.256716405526	1
1	819	167.625299345136	1
1	830	171.151452555788	1
1	838	174.185395128185	1
1	842	175.042830230798	1
1	854	178	1
1	861	179.654288618317	1
1	866	180.413253392565	1
1	875	182.279893862745	1
1	877	183.048356440136	1
1	891	185.8372419212	1
1	899	186.232807521595	1
1	908	186.952452419283	1
1	911	187.242725834406	1
1	913	187.492676651055	1
1	918	189	1
1	934	193.248423681287	1
1	938	193.800225802925	1
1	941	194.358552592189	1
1	953	196.087672229871	1
1	955	196.62357102521	1
1	960	198.834798319995	1
1	974	201.424624465492	1
1	979	202	1
1	989	205.17998188625	1
1	991	205.648860041877	1
1	1000	206.788655448541	1
1	1004	207.936848929852	1
1	1013	210.462312746499	1
1	1025	214.324853742887	1
1	1034	215.629078971335	1
1	1043	217	1
1	1046	217.331786764545	1
1	1057	221.366841904876	1
1	1077	229	1
1	1096	233.316401609511	1
1	1110	236.508245563283	1
1	1114	237.062514036696	1
1	1123	238.035986580341	1
1	1125	238.363196961667	1
1	1128	238.598602828171	1
1	1130	238.721565395058	1
1	1137	240	1
1	1154	244.245469999952	1
1	1156	244.95842647908	1
1	1158	244.987958290243	1
1	1170	247.507846984089	1
1	1173	248.282460720445	1
1	1181	250	1
1	1184	250.46517460973	1
1	1190	251.60679013325	1
1	1204	255.057800262609	1
1	1208	255.721383647018	1
1	1215	256.548709570621	1
1	1218	256.723619830716	1
1	1224	257.90663147736	1
1	1234	258.776246838197	1
1	1236	258.933918891026	1
1	1239	259.405859864529	1
1	1255	265	1
1	1258	265.418949460675	1
1	1277	270.818751102269	1
1	1283	271.277502404915	1
1	1287	271.887264577773	1
1	1291	272.298965155645	1
1	1295	273.635106978194	1
1	1303	275.761630462002	1
1	1317	276.838020921419	1
1	1322	277.662054229882	1
1	1324	277.747675023992	1
1	1327	278	1
1	1347	285.674818363347	1
1	1350	286	1
1	1364	290.711327453471	1
1	1366	290.720298840805	1
1	1378	292.555577279229	1
1	1380	292.740733332714	1
1	1390	296	1
1	1398	298.122993124956	1
1	1404	299.150672627961	1
1	1406	299.282884227789	1
1	1415	300.533832888447	1
1	1424	302	1
1	1429	303.281487449482	1
1	1437	304.707760586483	1
1	1439	304.738168580247	1
1	1450	306.920677272285	1
1	1462	308.016327142534	1
1	1466	308.781866224808	1
1	1468	309	1
1	1470	309.299789669878	1
1	1486	310.772402532421	1
1	1492	311.239555758881	1
1	1494	311.575655475346	1
1	1497	311.69881557572	1
1	1501	311.85463476183	1
1	1505	312.827561950942	1
1	1516	315.305582478542	1
1	1520	316	1
1	1526	317.467987421267	1
1	1531	319.728387868642	1
1	1543	323	1
1	1556	327.248521691949	1
1	1563	329.709440025488	1
1	1573	332	1
1	1579	333.240681425979	1
1	1588	334.400197391984	1
1	1590	334.955229117298	1
1	1599	337	1
1	1605	338.89574492096	1
1	1614	341.234260817477	1
1	1627	343.537867694106	1
1	1630	344	1
1	1632	344.055896751224	1
1	1634	344.299826421085	1
1	1636	344.481405638745	1
1	1647	347.042199553512	1
1	1663	352	1
1	1677	356.983106598718	1
1	1688	359.721129893991	1
1	1692	360	1
1	1703	363	1
1	1712	365.711170799254	1
1	1727	368.514355671965	1
1	1729	368.97263023502	1
1	1731	369	1
1	1742	370.822171043793	1
1	1747	371.148072268586	1
1	1754	373	1
1	1756	373.69396197066	1
1	1768	375	1
1	1774	375.5	1
1	1782	376	1
1	1788	376.5	1
1	1792	376.691848267421	1
1	1794	377	1
1	1798	377.5	1
1	1805	378	1
1	1808	378.5	1
1	1811	378.505376918877	1
1	1819	380.5	1
1	1830	383.5	1
1	1836	384.5	1
1	1845	385.740896706867	1
1	1853	386.5	1
1	1855	387.072676326887	1
1	1860	388.385336058724	1
1	1866	389.5	1
1	1869	389.815555406981	1
1	1883	392.5	1
1	1894	395.5	1
1	1896	395.838704028337	1
1	1905	397.848212645037	1
1	1910	398.430393698173	1
1	1913	399.096724574196	1
1	1922	400.5	1
1	1924	400.530574113015	1
1	1936	403.5	1
1	1945	405.902161584955	1
1	1957	408.148962766417	1
1	1959	408.5	1
1	1975	413.859529684038	1
1	1982	414.668413372655	1
1	1988	415.178550434738	1
1	1992	415.824030205763	1
1	1997	416.5	1
1	2001	417.538953309863	1
1	2008	419.5302098012	1
1	2010	419.601546807615	1
1	2020	421.197018331303	1
1	2027	422.465090255157	1
1	2029	422.874529567826	1
1	2036	424.175642205687	1
1	2038	424.5	1
1	2054	426.902292652651	1
1	2061	428.330830967985	1
1	2063	428.402523186038	1
1	2075	431.843244442809	1