version 2
run networkA-0-20130109-19:05:59-2612
attr configname networkA
attr datetime 20130109-19:05:59
attr experiment networkA
attr inifile omnetpp.ini
attr iterationvars ""
attr iterationvars2 $repetition=0
attr measurement ""
attr network networkA
attr processid 2612
attr repetition 0
attr replication #0
attr resultdir results
attr runnumber 0
attr seedset 0

vector 0  networkA.OnOff  "Changes vector"  ETV
attr interpolationmode  none
vector 2  networkA.AdmissionControl  "Packet size vector"  ETV
attr interpolationmode  none
vector 1  networkA.AdmissionControl  "Arrivals AC"  ETV
attr interpolationmode  none
vector 3  networkA.sink  arrivals  ETV
attr interpolationmode  none
0	1	0	1
0	4	0.64944634825	1
0	4	0.64944634825	0
0	8	1.402120461562	0
0	8	1.402120461562	1
0	22	4.00037454741	1
0	29	5.787862210848	1
0	29	5.787862210848	0
0	33	7.828754426759	0
0	36	8.964693368469	0
0	37	10.239921070692	0
0	38	11.112242265734	0
0	39	11.883076924201	0
0	42	12.620904215956	0
0	42	12.620904215956	1
0	48	13.956194400579	1
0	50	14.200242891315	1
0	50	14.200242891315	0
0	51	14.345520918607	0
0	54	14.737291729283	0
0	54	14.737291729283	1
0	56	14.899428218728	1
0	56	14.899428218728	0
0	64	15.150870150802	0
0	65	15.594274179422	0
0	65	15.594274179422	1
0	80	16.983316869213	1
0	80	16.983316869213	0
0	81	17.919378428984	0
0	81	17.919378428984	1
0	85	18.312490986288	1
0	85	18.312490986288	0
0	86	18.889815297094	0
0	86	18.889815297094	1
0	98	23.34431214327	1
0	100	23.972253724261	1
0	100	23.972253724261	0
0	104	24.252530732739	0
0	104	24.252530732739	1
0	107	24.425658188885	1
0	109	24.542613598677	1
0	111	24.924169442051	1
0	111	24.924169442051	0
0	121	26.430804775323	0
0	125	27.405906709479	0
0	126	27.988785098345	0
0	128	28.116841863656	0
0	129	28.772488148019	0
0	130	29.939361674567	0
0	130	29.939361674567	1
0	139	32.063598871568	1
0	141	32.896442387634	1
0	149	34.899682910141	1
0	152	35.757578551215	1
0	152	35.757578551215	0
0	156	38.406834479891	0
0	163	40.254162130892	0
0	164	40.412503637122	0
0	165	40.727225297976	0
0	165	40.727225297976	1
0	174	42.055983171726	1
0	174	42.055983171726	0
0	178	43.46700758102	0
0	179	43.971351387607	0
0	179	43.971351387607	1
0	191	46.235084963467	1
0	191	46.235084963467	0
0	198	50.07809154671	0
0	199	50.58040234497	0
0	202	51.544855910463	0
0	202	51.544855910463	1
0	204	51.903783126332	1
0	204	51.903783126332	0
0	206	52.983103324987	0
0	206	52.983103324987	1
0	208	53.325702949685	1
0	208	53.325702949685	0
0	210	54.288078005456	0
0	211	54.848039075529	0
0	212	54.993613053976	0
0	212	54.993613053976	1
0	214	55.347837186221	1
0	214	55.347837186221	0
0	219	56.191725658811	0
0	221	59.664261138093	0
0	224	60.228871639213	0
0	224	60.228871639213	1
0	226	60.801333190641	1
0	226	60.801333190641	0
0	231	63.026247847866	0
0	232	63.131129683466	0
0	232	63.131129683466	1
0	241	64.383737208377	1
0	241	64.383737208377	0
0	245	65.893560663986	0
0	245	65.893560663986	1
0	254	67.895547159511	1
0	254	67.895547159511	0
0	255	67.967222543823	0
0	255	67.967222543823	1
0	259	69.162661110105	1
0	259	69.162661110105	0
0	260	69.766960181952	0
0	263	71.047294385764	0
0	264	71.064062151756	0
0	265	71.326391460922	0
0	270	72.77418554291	0
0	281	75.658797295012	0
0	281	75.658797295012	1
0	291	77.734828355454	1
0	293	77.767185160099	1
0	295	77.94714250165	1
0	295	77.94714250165	0
0	299	78.918624659744	0
0	299	78.918624659744	1
0	301	79.779548296424	1
0	301	79.779548296424	0
0	310	84.658681184417	0
0	310	84.658681184417	1
0	319	88.173159864953	1
0	319	88.173159864953	0
0	320	88.842273588642	0
0	320	88.842273588642	1
0	327	90.970943683173	1
0	331	91.168911418506	1
0	331	91.168911418506	0
0	332	91.238529089579	0
0	332	91.238529089579	1
0	341	92.376067595119	1
0	350	93.145187396215	1
0	350	93.145187396215	0
0	352	93.754020309952	0
0	352	93.754020309952	1
0	363	96.122938480788	1
0	365	96.606576868277	1
0	373	97.49407879676	1
0	373	97.49407879676	0
0	375	97.867842090576	0
0	375	97.867842090576	1
0	380	98.422012919624	1
0	380	98.422012919624	0
0	382	100.587776600498	0
0	382	100.587776600498	1
0	387	101.72683425117	1
0	387	101.72683425117	0
0	393	103.849580905111	0
0	395	104.402419275762	0
0	395	104.402419275762	1
0	397	104.871095751738	1
0	397	104.871095751738	0
0	399	105.493925061502	0
0	400	105.819141079478	0
0	400	105.819141079478	1
0	402	106.70292673551	1
0	402	106.70292673551	0
0	406	108.696965936786	0
0	408	109.915965281967	0
0	408	109.915965281967	1
0	412	110.538002201048	1
0	412	110.538002201048	0
0	415	111.818426555026	0
0	417	113.192769569446	0
0	417	113.192769569446	1
0	419	113.289937247813	1
0	421	113.535135340455	1
0	432	114.918451806606	1
0	436	115.25660652145	1
0	440	115.362293695554	1
0	440	115.362293695554	0
0	441	115.378859789975	0
0	441	115.378859789975	1
0	452	118.031418305495	1
0	454	118.696226055046	1
0	462	122.490249838133	1
0	462	122.490249838133	0
0	463	125.326890031508	0
0	468	126.932348794575	0
0	473	127.246346692638	0
0	474	127.774813920939	0
0	478	129.501447300681	0
0	479	129.711980588885	0
0	480	129.840560826161	0
0	481	133.78819409372	0
0	482	134.309272914804	0
0	482	134.309272914804	1
0	484	135.151409217641	1
0	484	135.151409217641	0
0	495	138.391372184541	0
0	495	138.391372184541	1
0	499	139.153795868755	1
0	499	139.153795868755	0
0	501	139.517038087656	0
0	502	141.661423552169	0
0	502	141.661423552169	1
0	504	141.949936262517	1
0	504	141.949936262517	0
0	508	143.064823684424	0
0	508	143.064823684424	1
0	510	143.961152889444	1
0	517	144.608327593487	1
0	519	144.912299152715	1
0	524	145.521363608038	1
0	524	145.521363608038	0
0	527	146.671104995787	0
0	527	146.671104995787	1
0	533	148.585947253429	1
0	536	149.779960624024	1
0	539	151.288175855651	1
0	539	151.288175855651	0
0	541	152.790588649361	0
0	541	152.790588649361	1
0	543	153.090913729646	1
0	543	153.090913729646	0
0	544	153.55902018288	0
0	544	153.55902018288	1
0	547	154.444780828909	1
0	547	154.444780828909	0
0	549	154.763364676788	0
0	549	154.763364676788	1
0	555	155.226754704327	1
0	560	155.789579906144	1
0	560	155.789579906144	0
0	566	156.502964188944	0
0	569	157.271217530811	0
0	569	157.271217530811	1
0	574	158.415012909929	1
0	574	158.415012909929	0
0	575	158.740183780417	0
0	575	158.740183780417	1
0	577	158.878137012346	1
0	577	158.878137012346	0
0	578	159.376829345216	0
0	578	159.376829345216	1
0	583	162.509658834762	1
0	583	162.509658834762	0
0	584	162.716844017013	0
0	584	162.716844017013	1
0	592	165.060083947105	1
0	592	165.060083947105	0
0	593	165.615742860263	0
0	593	165.615742860263	1
0	599	166.256716405526	1
0	602	166.625299345136	1
0	604	166.890392446542	1
0	604	166.890392446542	0
0	607	167.590418082657	0
0	610	169.540394994503	0
0	611	170.151452555788	0
0	611	170.151452555788	1
0	618	173.185395128185	1
0	620	174.042830230798	1
0	625	175.761899542586	1
0	625	175.761899542586	0
0	633	178.157079331975	0
0	634	178.654288618317	0
0	634	178.654288618317	1
0	636	179.413253392565	1
0	644	181.279893862745	1
0	646	182.048356440136	1
0	650	183.188635317055	1
0	650	183.188635317055	0
0	652	184.128137302918	0
0	653	184.23180813956	0
0	654	184.8372419212	0
0	654	184.8372419212	1
0	658	185.232807521595	1
0	661	185.952452419283	1
0	667	186.242725834406	1
0	669	186.492676651055	1
0	671	186.784622722783	1
0	671	186.784622722783	0
0	672	186.925098439738	0
0	673	186.937207684799	0
0	677	187.059922692115	0
0	684	190.719484810576	0
0	689	192.248423681287	0
0	689	192.248423681287	1
0	691	192.800225802925	1
0	694	193.358552592189	1
0	698	195.087672229871	1
0	700	195.62357102521	1
0	702	196.070710927807	1
0	702	196.070710927807	0
0	705	197.834798319995	0
0	705	197.834798319995	1
0	709	200.424624465492	1
0	711	200.471723736547	1
0	711	200.471723736547	0
0	712	200.736506009885	0
0	715	201.165013614064	0
0	721	204.17998188625	0
0	721	204.17998188625	1
0	723	204.648860041877	1
0	727	205.788655448541	1
0	729	205.977220172792	1
0	729	205.977220172792	0
0	730	206.573770089668	0
0	732	206.936848929852	0
0	732	206.936848929852	1
0	738	208.764375197668	1
0	738	208.764375197668	0
0	741	209.462312746499	0
0	741	209.462312746499	1
0	748	212.319738094315	1
0	748	212.319738094315	0
0	751	213.324853742887	0
0	751	213.324853742887	1
0	757	214.555572593917	1
0	757	214.555572593917	0
0	758	214.629078971335	0
0	758	214.629078971335	1
0	760	214.975512298829	1
0	760	214.975512298829	0
0	763	215.140805311149	0
0	768	216.331786764545	0
0	768	216.331786764545	1
0	771	217.22883977865	1
0	771	217.22883977865	0
0	773	219.499549886046	0
0	774	220.366841904876	0
0	774	220.366841904876	1
0	785	224.086250215775	1
0	785	224.086250215775	0
0	786	224.457865970602	0
0	787	225.202244231999	0
0	788	226.590921505866	0
0	789	226.996647849732	0
0	793	229.575760980517	0
0	794	230.064869391137	0
0	797	231.038747982616	0
0	798	231.069449755627	0
0	801	232.308486263005	0
0	802	232.316401609511	0
0	802	232.316401609511	1
0	804	232.341234817257	1
0	804	232.341234817257	0
0	806	234.893711310804	0
0	807	234.987466698413	0
0	808	235.508245563283	0
0	808	235.508245563283	1
0	810	236.062514036696	1
0	813	237.035986580341	1
0	816	237.363196961667	1
0	818	237.598602828171	1
0	820	237.721565395058	1
0	824	238.582280102571	1
0	824	238.582280102571	0
0	829	239.356796890505	0
0	832	242.647445720764	0
0	833	242.664461344493	0
0	834	243.245469999952	0
0	834	243.245469999952	1
0	836	243.95842647908	1
0	838	243.987958290243	1
0	850	246.507846984089	1
0	852	247.282460720445	1
0	859	249.46517460973	1
0	865	250.60679013325	1
0	872	254.057800262609	1
0	874	254.438311211171	1
0	874	254.438311211171	0
0	875	254.721383647018	0
0	875	254.721383647018	1
0	881	255.548709570621	1
0	886	255.723619830716	1
0	892	256.634765638786	1
0	892	256.634765638786	0
0	894	256.90663147736	0
0	894	256.90663147736	1
0	898	257.776246838197	1
0	901	257.933918891026	1
0	905	258.342836420272	1
0	905	258.342836420272	0
0	906	258.405859864529	0
0	906	258.405859864529	1
0	916	260.78892813772	1
0	916	260.78892813772	0
0	917	262.135555426256	0
0	921	264.418949460675	0
0	921	264.418949460675	1
0	928	268.307594183444	1
0	928	268.307594183444	0
0	929	268.82379763838	0
0	930	269.096148864734	0
0	931	269.818751102269	0
0	931	269.818751102269	1
0	933	270.277502404915	1
0	936	270.887264577773	1
0	939	271.298965155645	1
0	943	272.197367522081	1
0	943	272.197367522081	0
0	945	272.635106978194	0
0	945	272.635106978194	1
0	948	273.705189467821	1
0	948	273.705189467821	0
0	949	274.761630462002	0
0	949	274.761630462002	1
0	952	275.838020921419	1
0	956	276.344284888501	1
0	956	276.344284888501	0
0	957	276.662054229882	0
0	957	276.662054229882	1
0	959	276.747675023992	1
0	970	278.196996893467	1
0	970	278.196996893467	0
0	973	278.764884586586	0
0	974	279.158101873576	0
0	976	280.033740671666	0
0	977	282.789953749143	0
0	978	284.674818363347	0
0	978	284.674818363347	1
0	984	287.421070233571	1
0	984	287.421070233571	0
0	986	289.711327453471	0
0	986	289.711327453471	1
0	988	289.720298840805	1
0	990	290.409009684761	1
0	990	290.409009684761	0
0	995	291.279089595128	0
0	996	291.555577279229	0
0	996	291.555577279229	1
0	1000	291.740733332714	1
0	1007	293.70385662227	1
0	1007	293.70385662227	0
0	1012	297.122993124956	0
0	1012	297.122993124956	1
0	1014	297.640160052026	1
0	1014	297.640160052026	0
0	1016	298.150672627961	0
0	1016	298.150672627961	1
0	1018	298.282884227789	1
0	1024	299.533832888447	1
0	1031	300.553228076515	1
0	1031	300.553228076515	0
0	1036	302.281487449482	0
0	1036	302.281487449482	1
0	1038	302.800741174362	1
0	1038	302.800741174362	0
0	1042	303.320563119242	0
0	1043	303.707760586483	0
0	1043	303.707760586483	1
0	1045	303.738168580247	1
0	1054	305.074736997569	1
0	1054	305.074736997569	0
0	1057	305.831591314795	0
0	1058	305.920677272285	0
0	1058	305.920677272285	1
0	1063	307.016327142534	1
0	1065	307.781866224808	1
0	1071	308.299789669878	1
0	1076	309.772402532421	1
0	1078	310.239555758881	1
0	1080	310.491695435313	1
0	1080	310.491695435313	0
0	1081	310.575655475346	0
0	1081	310.575655475346	1
0	1083	310.664826557614	1
0	1083	310.664826557614	0
0	1084	310.67355445392	0
0	1085	310.69881557572	0
0	1085	310.69881557572	1
0	1090	310.85463476183	1
0	1094	311.575687166249	1
0	1094	311.575687166249	0
0	1098	311.827561950942	0
0	1098	311.827561950942	1
0	1101	311.884245832099	1
0	1101	311.884245832099	0
0	1104	314.305582478542	0
0	1104	314.305582478542	1
0	1115	316.467987421267	1
0	1120	318.728387868642	1
0	1124	320.777125862215	1
0	1124	320.777125862215	0
0	1125	321.878521940522	0
0	1132	326.248521691949	0
0	1132	326.248521691949	1
0	1136	328.158076710452	1
0	1136	328.158076710452	0
0	1137	328.661502825906	0
0	1138	328.709440025488	0
0	1138	328.709440025488	1
0	1144	332.240681425979	1
0	1149	333.400197391984	1
0	1151	333.955229117298	1
0	1154	334.053828617496	1
0	1154	334.053828617496	0
0	1165	337.89574492096	0
0	1165	337.89574492096	1
0	1167	338.744011730799	1
0	1167	338.744011730799	0
0	1169	340.234260817477	0
0	1169	340.234260817477	1
0	1176	342.537867694106	1
0	1180	343.055896751224	1
0	1182	343.299826421085	1
0	1184	343.481405638745	1
0	1196	346.042199553512	1
0	1198	346.390448187692	1
0	1198	346.390448187692	0
0	1199	346.993926980121	0
0	1201	347.675062258219	0
0	1202	349.180913401299	0
0	1205	351.040319973717	0
0	1211	354.746310611038	0
0	1212	354.860171268343	0
0	1213	355.700004769728	0
0	1214	355.983106598718	0
0	1214	355.983106598718	1
0	1220	358.721129893991	1
0	1224	359.009343061899	1
0	1224	359.009343061899	0
0	1230	360.030175480951	0
0	1233	361.211580879542	0
0	1236	362.432861056447	0
0	1238	364.711170799254	0
0	1238	364.711170799254	1
0	1246	366.180704115123	1
0	1246	366.180704115123	0
0	1247	366.569337681354	0
0	1250	367.514355671965	0
0	1250	367.514355671965	1
0	1252	367.97263023502	1
0	1262	369.268086898946	1
0	1262	369.268086898946	0
0	1263	369.822171043793	0
0	1263	369.822171043793	1
0	1267	370.055684749831	1
0	1267	370.055684749831	0
0	1268	370.148072268586	0
0	1268	370.148072268586	1
0	1273	371.069951526865	1
0	1273	371.069951526865	0
0	1279	372.69396197066	0
0	1279	372.69396197066	1
0	1283	373.993161303092	1
0	1283	373.993161303092	0
0	1295	375.081777476145	0
0	1299	375.691848267421	0
0	1299	375.691848267421	1
0	1301	375.805252989613	1
0	1301	375.805252989613	0
0	1320	377.505376918877	0
0	1320	377.505376918877	1
0	1323	378.032545708573	1
0	1323	378.032545708573	0
0	1326	378.500169785841	0
0	1328	379.225093222149	0
0	1332	381.423858511814	0
0	1335	382.576269531191	0
0	1344	384.740896706867	0
0	1344	384.740896706867	1
0	1346	385.155853289591	1
0	1346	385.155853289591	0
0	1350	386.072676326887	0
0	1350	386.072676326887	1
0	1352	386.369623385668	1
0	1352	386.369623385668	0
0	1355	387.385336058724	0
0	1355	387.385336058724	1
0	1362	388.815555406981	1
0	1367	389.700772251632	1
0	1367	389.700772251632	0
0	1370	391.359365638537	0
0	1373	391.951540442514	0
0	1379	394.416300578935	0
0	1382	394.838704028337	0
0	1382	394.838704028337	1
0	1386	396.848212645037	1
0	1388	397.430393698173	1
0	1391	398.096724574196	1
0	1394	398.691600830087	1
0	1394	398.691600830087	0
0	1398	399.530574113015	0
0	1398	399.530574113015	1
0	1403	401.546391577352	1
0	1403	401.546391577352	0
0	1408	402.534540230517	0
0	1411	403.611198879369	0
0	1412	404.902161584955	0
0	1412	404.902161584955	1
0	1414	405.081872644198	1
0	1414	405.081872644198	0
0	1416	406.461087994935	0
0	1417	407.148962766417	0
0	1417	407.148962766417	1
0	1419	407.240401414458	1
0	1419	407.240401414458	0
0	1425	409.231617054953	0
0	1426	412.131115708629	0
0	1427	412.859529684038	0
0	1427	412.859529684038	1
0	1431	413.668413372655	1
0	1437	414.073486601837	1
0	1437	414.073486601837	0
0	1438	414.178550434738	0
0	1438	414.178550434738	1
0	1441	414.824030205763	1
0	1453	416.538953309863	1
0	1458	418.5302098012	1
0	1460	418.601546807615	1
0	1464	419.824736548165	1
0	1464	419.824736548165	0
0	1465	420.197018331303	0
0	1465	420.197018331303	1
0	1468	421.465090255157	1
0	1470	421.874529567826	1
0	1476	423.175642205687	1
0	1485	424.864120033711	1
0	1485	424.864120033711	0
0	1488	425.288012374035	0
0	1489	425.902292652651	0
0	1489	425.902292652651	1
0	1492	426.291392711055	1
0	1492	426.291392711055	0
0	1493	426.671922421148	0
0	1495	427.330830967985	0
0	1495	427.330830967985	1
0	1497	427.402523186038	1
0	1501	429.515921470321	1
0	1501	429.515921470321	0
0	1502	430.843244442809	0
0	1502	430.843244442809	1
0	1504	431.037435421589	1
0	1512	433.836958190053	1
0	1512	433.836958190053	0
0	1513	434.731158180267	0
0	1513	434.731158180267	1
0	1516	437.278609431158	1
0	1516	437.278609431158	0
0	1519	438.914719171754	0
0	1519	438.914719171754	1
0	1521	438.926965010597	1
0	1521	438.926965010597	0
0	1523	439.316797257114	0
0	1526	441.209388586183	0
0	1526	441.209388586183	1
0	1531	442.398556660689	1
0	1534	443.051920127902	1
0	1534	443.051920127902	0
0	1536	443.938572262509	0
0	1536	443.938572262509	1
0	1539	446.220922827494	1
0	1549	448.750054267461	1
0	1551	448.795025935399	1
0	1560	450.911309783437	1
0	1560	450.911309783437	0
0	1563	451.191521261542	0
0	1593	454.263609901766	0
0	1593	454.263609901766	1
0	1640	460.491042069744	1
0	1640	460.491042069744	0
0	1644	460.566578530653	0
0	1644	460.566578530653	1
0	1649	461.837364650031	1
0	1651	462.268136563109	1
0	1651	462.268136563109	0
0	1654	462.561678966454	0
0	1654	462.561678966454	1
0	1662	464.680748919241	1
0	1662	464.680748919241	0
0	1663	465.448192842278	0
0	1663	465.448192842278	1
0	1668	466.051006746655	1
0	1670	466.407952382938	1
0	1670	466.407952382938	0
0	1675	466.970274807904	0
0	1675	466.970274807904	1
0	1683	467.648794356386	1
0	1683	467.648794356386	0
0	1689	468.0501686316	0
0	1689	468.0501686316	1
0	1691	468.064130699854	1
0	1695	468.725300383977	1
0	1695	468.725300383977	0
0	1699	469.021167591163	0
0	1703	469.393143599588	0
0	1704	469.524006535366	0
0	1704	469.524006535366	1
0	1707	470.180581177849	1
0	1707	470.180581177849	0
0	1708	470.276792672018	0
0	1708	470.276792672018	1
0	1711	470.537217741506	1
0	1711	470.537217741506	0
0	1717	471.693718507661	0
0	1717	471.693718507661	1
0	1723	472.492347338097	1
0	1723	472.492347338097	0
0	1729	472.57931251578	0
0	1729	472.57931251578	1
0	1745	474.931368400851	1
0	1749	475.136485376362	1
0	1749	475.136485376362	0
0	1750	475.25178820022	0
0	1750	475.25178820022	1
0	1752	475.55919635038	1
0	1752	475.55919635038	0
0	1762	479.251870071593	0
0	1771	481.840003737963	0
0	1771	481.840003737963	1
0	1773	481.96815232386	1
0	1773	481.96815232386	0
0	1776	483.374245840926	0
0	1776	483.374245840926	1
0	1781	485.537259039981	1
0	1781	485.537259039981	0
0	1785	486.960153301457	0
0	1797	490.373066564139	0
0	1809	492.020302567172	0
0	1809	492.020302567172	1
0	1811	492.49086704338	1
0	1811	492.49086704338	0
0	1814	493.515670288301	0
0	1814	493.515670288301	1
0	1819	494.774566293453	1
0	1843	498.598291867122	1
0	1843	498.598291867122	0
0	1844	498.879697601485	0
0	1844	498.879697601485	1
0	1847	499.876200541932	1
0	1861	506.087814918319	1
0	1864	508.329989575427	1
0	1870	509.185800895681	1
0	1870	509.185800895681	0
0	1874	510.33694865983	0
0	1875	510.445030967111	0
0	1875	510.445030967111	1
0	1877	510.626900109193	1
0	1879	510.901982422951	1
0	1879	510.901982422951	0
0	1880	511.151121318121	0
0	1880	511.151121318121	1
0	1886	512.387963581203	1
0	1891	513.856048494035	1
0	1891	513.856048494035	0
0	1895	514.029680367823	0
0	1895	514.029680367823	1
0	1897	514.342624221526	1
0	1907	515.953340940293	1
0	1916	517.706679644394	1
0	1918	517.768911861621	1
0	1918	517.768911861621	0
0	1931	520.053581000577	0
0	1944	521.901287620891	0
0	1944	521.901287620891	1
0	1950	522.581697473428	1
0	1956	523.541262451942	1
0	1956	523.541262451942	0
0	1962	526.230681840358	0
0	1962	526.230681840358	1
0	1970	528.119314796792	1
0	1973	530.543512550853	1
0	1973	530.543512550853	0
0	1974	532.16479915354	0
0	1974	532.16479915354	1
0	1976	532.164859725335	1
0	1976	532.164859725335	0
0	1980	533.20674162423	0
0	1985	534.324197825921	0
0	1987	534.682744410527	0
0	1989	536.092788701265	0
0	1990	536.512739412536	0
0	1990	536.512739412536	1
0	1993	538.481073852711	1
0	1993	538.481073852711	0
0	1999	539.539503661113	0
0	1999	539.539503661113	1
0	2006	541.154330455595	1
0	2008	541.262350001612	1
0	2008	541.262350001612	0
0	2012	542.791472235876	0
0	2012	542.791472235876	1
0	2014	542.854297267872	1
0	2014	542.854297267872	0
0	2015	543.014910875823	0
0	2018	544.498858342849	0
0	2019	545.33747704692	0
0	2019	545.33747704692	1
0	2031	549.411968294968	1
0	2031	549.411968294968	0
0	2041	550.88705534224	0
0	2041	550.88705534224	1
0	2046	551.329660216384	1
0	2046	551.329660216384	0
0	2050	551.882791437503	0
0	2058	552.974022354092	0
0	2058	552.974022354092	1
0	2065	553.063722364166	1
0	2065	553.063722364166	0
0	2072	554.062630134076	0
0	2078	555.10201882313	0
0	2078	555.10201882313	1
0	2080	555.326351275577	1
0	2085	555.738600649547	1
0	2085	555.738600649547	0
0	2105	559.671326384197	0
0	2115	561.192669749239	0
0	2116	561.349833171601	0
0	2123	566.29562086579	0
0	2124	566.673989572857	0
0	2128	569.006815890111	0
0	2129	569.974540928233	0
0	2131	570.142237476847	0
0	2134	571.755676382961	0
0	2135	571.863614457788	0
0	2137	572.209176194501	0
0	2137	572.209176194501	1
0	2139	572.359703515457	1
0	2139	572.359703515457	0
0	2140	572.761071478451	0
0	2141	572.813473877255	0
0	2141	572.813473877255	1
0	2144	573.215847088536	1
0	2146	573.601989513973	1
0	2146	573.601989513973	0
0	2154	576.53582121178	0
0	2155	576.992284825805	0
0	2155	576.992284825805	1
0	2157	577.017365795367	1
0	2157	577.017365795367	0
0	2158	577.035294229743	0
0	2166	580.208855362437	0
0	2167	582.366131831186	0
0	2168	583.832142924633	0
0	2170	585.076488002483	0
0	2170	585.076488002483	1
0	2172	585.131719087052	1
0	2174	585.6362690151	1
0	2176	585.819513979846	1
0	2187	587.544946004554	1
0	2189	587.559300042521	1
0	2189	587.559300042521	0
0	2195	589.598352875192	0
0	2196	589.989992476338	0
0	2196	589.989992476338	1
0	2200	591.541938241421	1
0	2200	591.541938241421	0
0	2201	591.719213428983	0
0	2202	591.804315109054	0
0	2204	592.524185634829	0
0	2204	592.524185634829	1
0	2206	592.774353264168	1
0	2206	592.774353264168	0
0	2207	593.038731001339	0
0	2207	593.038731001339	1
0	2210	593.78510311342	1
0	2210	593.78510311342	0
0	2212	594.056286222961	0
0	2213	594.756355868686	0
0	2213	594.756355868686	1
0	2215	594.974977344303	1
0	2215	594.974977344303	0
0	2216	595.002428941974	0
0	2217	595.090362287279	0
0	2217	595.090362287279	1
0	2220	595.81835224412	1
0	2220	595.81835224412	0
0	2224	596.858197425699	0
0	2224	596.858197425699	1
0	2228	597.495355217122	1
0	2228	597.495355217122	0
0	2229	597.496072435017	0
0	2229	597.496072435017	1
0	2231	597.846895925085	1
0	2231	597.846895925085	0
0	2236	598.798042438714	0
1	45	13.620904215956	1
1	57	14.956194400579	1
1	67	15.737291729283	1
1	74	16	1
1	95	23	1
1	112	25.252530732739	1
1	136	32	1
1	169	41.727225297976	1
1	183	44.971351387607	1
1	237	64	1
1	247	66.893560663986	1
1	267	72	1
1	283	76	1
1	335	92	1
1	343	93	1
1	354	94	1
1	358	94.754020309952	1
1	370	97.122938480788	1
1	390	102	1
1	426	114.289937247813	1
1	429	114.535135340455	1
1	434	115	1
1	450	118	1
1	470	127	1
1	492	138	1
1	514	144.064823684424	1
1	557	155.763364676788	1
1	562	156	1
1	589	165	1
1	613	171.151452555788	1
1	623	175.042830230798	1
1	638	179.654288618317	1
1	663	186	1
1	682	189	1
1	734	207.936848929852	1
1	743	210.462312746499	1
1	753	214	1
1	776	221.366841904876	1
1	843	244.95842647908	1
1	862	250.46517460973	1
1	877	255	1
1	883	255.721383647018	1
1	908	258.776246838197	1
1	965	277.662054229882	1
1	992	290.720298840805	1
1	1020	299.150672627961	1
1	1039	303.281487449482	1
1	1050	304.707760586483	1
1	1087	310.772402532421	1
1	1111	316	1
1	1155	334.400197391984	1
1	1171	341.234260817477	1
1	1188	344	1
1	1227	360	1
1	1243	366	1
1	1258	368.97263023502	1
1	1270	370.822171043793	1
1	1291	375	1
1	1306	376.5	1
1	1324	378.5	1
1	1357	388.385336058724	1
1	1368	389.815555406981	1
1	1433	413.859529684038	1
1	1450	416.5	1
1	1472	422.465090255157	1
1	1564	451.5	1
1	1579	453	1
1	1584	453.5	1
1	1597	455	1
1	1604	455.263609901766	1
1	1627	459	1
1	1680	467.5	1
1	1685	468	1
1	1700	469.0501686316	1
1	1724	472.5	1
1	1734	473	1
1	1741	473.57931251578	1
1	1755	476.25178820022	1
1	1764	480	1
1	1786	487	1
1	1794	490	1
1	1805	492	1
1	1821	495	1
1	1833	497	1
1	1902	515.029680367823	1
1	1911	516.953340940293	1
1	1932	520.5	1
1	1937	521	1
1	1946	522.5	1
1	1967	527.5	1
1	1977	533.16479915354	1
1	1996	539.5	1
1	2010	542.154330455595	1
1	2036	550.5	1
1	2053	552	1
1	2073	554.5	1
1	2087	556.326351275577	1
1	2097	558.5	1
1	2107	560	1
1	2147	573.813473877255	1
1	2183	586.819513979846	1
1	2221	596.090362287279	1
2	7	1	22189
2	10	2	22384
2	13	2.402120461562	25702
2	14	3	2063
2	19	4	10278
2	24	4.5	12979
2	25	5	20905
2	28	5.00037454741	18597
2	30	6	25942
2	35	8	26622
2	44	13	1888
2	45	13.620904215956	7853
2	57	14.956194400579	6113
2	67	15.737291729283	8795
2	73	16	18827
2	74	16	9495
2	77	16.594274179422	30684
2	88	18.919378428984	28129
2	91	19.889815297094	21125
2	92	20	17167
2	95	23	8089
2	106	24.34431214327	23650
2	112	25.252530732739	5869
2	115	25.425658188885	15939
2	116	25.542613598677	16875
2	124	27	14778
2	127	28	29338
2	132	30.939361674567	13722
2	136	32	7112
2	145	33.063598871568	29951
2	146	33.896442387634	12522
2	151	35	18467
2	153	35.899682910141	15922
2	157	39	24173
2	167	41	19286
2	168	41	17089
2	169	41.727225297976	6438
2	177	43	16054
2	183	44.971351387607	7089
2	186	45	2983
2	192	47	21963
2	200	51	18169
2	201	51	22686
2	205	52.544855910463	13765
2	209	53.983103324987	26736
2	215	55.993613053976	14211
2	220	57	24862
2	227	61	611
2	228	61.228871639213	14463
2	237	64	5679
2	240	64.131129683466	13626
2	242	65	2924
2	247	66.893560663986	9941
2	257	68	2780
2	258	68.967222543823	17321
2	267	72	9458
2	277	74	21119
2	280	75	19442
2	283	76	6151
2	286	76.658797295012	21054
2	296	78	2566
2	297	78.734828355454	772
2	298	78.767185160099	25900
2	302	79.918624659744	20535
2	308	82	2072
2	309	82	22986
2	314	85.658681184417	3326
2	315	86	4508
2	322	89	29438
2	325	89.842273588642	16639
2	326	90	2792
2	334	91.970943683173	2276
2	335	92	5916
2	340	92.238529089579	25303
2	343	93	6741
2	351	93.376067595119	15195
2	354	94	7652
2	358	94.754020309952	7133
2	369	97	11216
2	370	97.122938480788	7080
2	374	97.606576868277	885
2	377	98	18285
2	381	98.867842090576	10813
2	386	101.587776600498	29903
2	390	102	6572
2	392	103	18348
2	398	105.402419275762	18066
2	403	106.819141079478	3771
2	407	109	12220
2	413	110.915965281967	15347
2	414	111	31690
2	425	114.192769569446	20140
2	426	114.289937247813	5850
2	429	114.535135340455	8616
2	434	115	6134
2	443	115.918451806606	24806
2	444	116.25660652145	16638
2	447	116.378859789975	3319
2	450	118	6353
2	458	119.031418305495	22423
2	459	119.696226055046	12785
2	461	120	30857
2	469	127	17709
2	470	127	9356
2	485	135.309272914804	22426
2	491	137	27400
2	492	138	6865
2	500	139.391372184541	18183
2	505	142.661423552169	22480
2	513	144	2851
2	514	144.064823684424	5803
2	521	144.961152889444	4499
2	525	145.608327593487	27705
2	526	145.912299152715	11433
2	531	147.671104995787	25158
2	532	148	13048
2	535	149.585947253429	20583
2	538	150.779960624024	28097
2	546	153.790588649361	25824
2	548	154.55902018288	17934
2	557	155.763364676788	7727
2	561	156	16192
2	562	156	5833
2	565	156.226754704327	27773
2	573	158.271217530811	13388
2	580	159.740183780417	23233
2	582	160.376829345216	313
2	586	163.716844017013	22675
2	589	165	5809
2	601	166.615742860263	16684
2	605	167	2417
2	606	167.256716405526	21272
2	608	167.625299345136	23611
2	613	171.151452555788	7461
2	622	174.185395128185	28166
2	623	175.042830230798	6480
2	631	177	821
2	632	178	16959
2	638	179.654288618317	7314
2	641	180.413253392565	17506
2	648	182.279893862745	24719
2	649	183.048356440136	17798
2	660	185.8372419212	18330
2	663	186	7909
2	666	186.232807521595	27201
2	674	186.952452419283	18987
2	678	187.242725834406	21006
2	679	187.492676651055	631
2	682	189	5416
2	688	192	18951
2	693	193.248423681287	26571
2	696	193.800225802925	24464
2	697	194.358552592189	27435
2	703	196.087672229871	27562
2	704	196.62357102521	12700
2	707	198.834798319995	16712
2	716	201.424624465492	2840
2	719	202	10445
2	720	203	15281
2	725	205.17998188625	4948
2	726	205.648860041877	23532
2	731	206.788655448541	11921
2	734	207.936848929852	6890
2	743	210.462312746499	8217
2	753	214	6517
2	756	214.324853742887	17825
2	764	215.629078971335	23541
2	770	217	27688
2	772	217.331786764545	25264
2	776	221.366841904876	5823
2	784	224	31675
2	792	229	17618
2	800	232	2536
2	805	233.316401609511	1669
2	812	236.508245563283	14000
2	815	237.062514036696	11037
2	822	238.035986580341	22790
2	823	238.363196961667	27785
2	825	238.598602828171	12875
2	826	238.721565395058	23665
2	831	240	29443
2	842	244.245469999952	23152
2	843	244.95842647908	7307
2	846	244.987958290243	22106
2	847	245	19621
2	854	247.507846984089	565
2	856	248.282460720445	11020
2	861	250	31974
2	862	250.46517460973	6197
2	869	251.60679013325	18357
2	877	255	9058
2	880	255.057800262609	324