version 2
run ACBannedIP-0-20130106-14:31:31-6932
attr configname ACBannedIP
attr datetime 20130106-14:31:31
attr experiment ACBannedIP
attr inifile omnetpp.ini
attr iterationvars ""
attr iterationvars2 $repetition=0
attr measurement ""
attr network tirtproject.AdmissionControl.ACBannedIP
attr processid 6932
attr repetition 0
attr replication #0
attr resultdir results
attr runnumber 0
attr seedset 0

vector 0  ACBannedIP.AC  "Arrivals AC"  ETV
attr interpolationmode  none
vector 1  ACBannedIP.sink  arrivals  ETV
attr interpolationmode  none
0	7	1	1
0	11	1.64944634825	1
0	15	2	1
0	19	2.303328915471	1
0	21	2.714906911713	1
0	23	3	1
0	29	4.502394575151	1
0	31	5	1
0	39	8.347616444292	1
0	41	8.502346124792	1
0	43	9	1
0	49	11.396766602779	1
0	55	12	1
0	57	12.732056787402	1
0	59	12.894193276847	1
0	69	15	1
0	71	15.223106651061	1
0	73	15.327667876836	1
0	78	16.426580344386	1
0	82	17.432451349552	1
0	86	19	1
0	92	20.625397991605	1
0	96	21	1
0	100	21.684140706699	1
0	108	22.661004780769	1
0	110	22.777960190561	1
0	112	23	1
0	116	23.159516033935	1
0	122	24	1
0	126	24.245785414813	1
0	137	25	1
0	141	25.365599780566	1
0	143	25.5	1
0	147	25.811019242485	1
0	149	25.93740787891	1
0	151	26	1
0	153	26.5	1
0	161	27.5	1
0	163	28	1
0	167	28.061645075911	1
0	171	29	1
0	177	29.5	1
0	183	30	1
0	187	30.064885598418	1
0	191	30.5	1
0	195	30.922781239492	1
0	197	31	1
0	199	31.30634145359	1
0	203	31.5	1
0	209	32.348122107769	1
0	211	32.5	1
0	215	32.528374359753	1
0	221	33.5	1
0	227	33.857132233503	1
0	229	34	1
0	233	34.5	1
0	237	34.715525201331	1
0	243	35	1
0	245	35.5	1
0	247	35.734183931349	1
0	256	37.5	1
0	258	37.607643811206	1
0	262	37.869701052881	1
0	268	38.802103933287	1
0	270	39.161031149156	1
0	272	39.503630773854	1
0	280	40.88660998039	1
0	284	40.995157078884	1
0	286	41.5	1
0	288	41.888886157189	1
0	298	42.944735765848	1
0	300	43.194817260825	1
0	304	43.5	1
0	306	43.767278812253	1
0	308	44.361352310576	1
0	312	45.613959835487	1
0	316	47.5	1
0	325	51.5	1
0	329	52.379350355424	1
0	331	52.5	1
0	339	53.5	1
0	343	53.574788921706	1
0	345	54.021041742225	1
0	351	54.5	1
0	359	55.330340106247	1
0	361	55.386210159135	1
0	363	55.5	1
0	369	56	1
0	373	56.008807503113	1
0	377	56.945946220836	1
0	379	56.978303025481	1
0	381	57	1
0	387	57.158260367032	1
0	391	58	1
0	395	58.019184003712	1
0	403	58.971013711254	1
0	405	59	1
0	409	59.209766584101	1
0	411	59.456625852899	1
0	413	59.5	1
0	415	60	1
0	423	61	1
0	427	61.5	1
0	432	62	1
0	436	62.971104533435	1
0	438	63	1
0	444	64	1
0	448	64.108643038975	1
0	450	65	1
0	454	66	1
0	458	67	1
0	466	68	1
0	472	68.5	1
0	474	68.748295565348	1
0	476	69	1
0	484	69.133983259393	1
0	490	70	1
0	492	70.021485187876	1
0	494	70.021540539771	1
0	496	70.341115194643	1
0	498	70.5	1
0	504	71.5	1
0	508	71.940834636483	1
0	514	72.601337716232	1
0	519	73.5	1
0	521	74.15600065404	1
0	533	75.4669730222	1
0	535	75.5	1
0	537	75.673331015804	1
0	539	75.814973050599	1
0	543	76.31925298385	1
0	549	77.152631224495	1
0	551	77.332905524073	1
0	553	77.466246147345	1
0	561	79.5	1
0	565	80.28688209576	1
0	567	80.384049774127	1
0	571	80.629247866769	1
0	579	81.5	1
0	583	82.01256433292	1
0	585	82.350719047764	1
0	587	82.456406221868	1
0	594	84.5	1
0	596	85.108964737388	1
0	600	88.367885714572	1
0	606	90.478774488954	1
0	612	91.14461697559	1
0	614	91.5	1
0	625	93.21837843869	1
0	629	93.678169756465	1
0	631	93.825394793778	1
0	635	94.17899136904	1
0	637	94.281959732759	1
0	639	95.124096035596	1
0	645	96.611525789935	1
0	655	97.121516623784	1
0	659	97.644484277439	1
0	661	97.908754741574	1
0	663	97.963662114125	1
0	665	97.975155364333	1
0	669	98.5	1
0	673	99.447359522326	1
0	675	100.01325406396	1
0	685	101.408123155223	1
0	691	101.88460173782	1
0	696	102.199761766535	1
0	698	102.5	1
0	700	102.808826221858	1
0	702	103.008681759778	1
0	708	104.56242726181	1
0	710	104.620955160756	1
0	714	105.814968531351	1
0	726	107.323183762978	1
0	730	107.623508843263	1
0	732	107.695927953377	1
0	736	108.159317980916	1
0	738	108.204956030411	1
0	740	108.5	1
0	747	109.813373879496	1
0	749	109.968659465	1
0	757	111.016948569956	1
0	759	111.154901801885	1
0	761	111.313913818684	1
0	771	113.657153748776	1
0	773	114.267636593773	1
0	775	114.354253588219	1
0	777	114.5	1
0	783	115.642215563294	1
0	785	115.669657663724	1
0	793	116.984179761808	1
0	795	117.352762701418	1
0	797	117.617855802824	1
0	812	120.651798375221	1
0	814	121.160017829273	1
0	816	121.224783522062	1
0	820	121.52411190448	1
0	822	121.557983759722	1
0	824	122.5	1
0	828	124.751745632404	1
0	836	126.618386102584	1
0	838	127.386848679975	1
0	840	127.5	1
0	850	128.527127556894	1
0	854	128.922693157289	1
0	859	129.187628094926	1
0	867	129.747636468256	1
0	869	130.037909883379	1
0	873	130.287860700028	1
0	877	130.5	1
0	879	130.579806771756	1
0	883	131.255162641928	1
0	885	131.433039399784	1
0	889	131.808101342902	1
0	893	132.5	1
0	899	133.426762409321	1
0	901	133.5	1
0	910	134.5	1
0	912	134.57742500225	1
0	916	135.084148216149	1
0	920	135.680320107545	1
0	924	136.5	1
0	926	137.367538396302	1
0	930	138.5	1
0	936	139.720873164375	1
0	938	140.5	1
0	944	141.5	1
0	948	141.942087347574	1
0	950	142.5	1
0	958	143.5	1
0	964	144	1
0	968	144.076789742114	1
0	970	144.5	1
0	974	144.545667897741	1
0	978	145	1
0	980	145.5	1
0	984	145.685463304405	1
0	988	146.5	1
0	994	147	1
0	996	147.5	1
0	1000	147.512989572221	1
0	1004	148.5	1
0	1008	149	1
0	1017	150	1
0	1021	150.370414920037	1
0	1023	150.716848247531	1
0	1033	151.310178815791	1
0	1037	151.792754030951	1
0	1039	151.867945840114	1
0	1041	151.887435133065	1
0	1043	152	1
0	1045	152.78448814717	1
0	1049	154	1
0	1053	155	1
0	1059	156.503896458069	1
0	1061	157	1
0	1071	158.693543172627	1
0	1074	159	1
0	1078	159.676071515349	1
0	1080	160	1
0	1086	162	1
0	1092	162.57118913237	1
0	1096	163.187782220893	1
0	1098	163.212615428639	1
0	1102	163.660703397014	1
0	1108	164.359284403093	1
0	1114	164.913552876506	1
0	1116	165	1
0	1122	165.5	1
0	1124	165.887025420151	1
0	1128	166	1
0	1132	166.122431286655	1
0	1134	166.983145994168	1
0	1136	167	1
0	1144	168.097756997167	1
0	1151	169	1
0	1155	169.139601461987	1
0	1157	169.5	1
0	1161	170	1
0	1165	170.5	1
0	1169	171	1
0	1173	171.659490155833	1
0	1175	172	1
0	1181	173	1
0	1185	173.412938274109	1
0	1189	174.199621389568	1
0	1193	174.676619140512	1
0	1195	175.457787930499	1
0	1199	177	1
0	1207	178.025720559201	1
0	1209	178.138250505579	1
0	1213	178.518761454141	1
0	1217	179.346087377744	1
0	1221	179.520997637839	1
0	1227	180.432143445909	1
0	1229	181	1
0	1231	181.301758806746	1
0	1237	182.494011048828	1
1	8	1	1
1	12	1.64944634825	1
1	18	2	1
1	20	2.303328915471	1
1	22	2.714906911713	1
1	24	3	1
1	30	4.502394575151	1
1	32	5	1
1	40	8.347616444292	1
1	42	8.502346124792	1
1	44	9	1
1	50	11.396766602779	1
1	56	12	1
1	58	12.732056787402	1
1	60	12.894193276847	1
1	70	15	1
1	72	15.223106651061	1
1	74	15.327667876836	1
1	79	16.426580344386	1
1	83	17.432451349552	1
1	87	19	1
1	93	20.625397991605	1
1	97	21	1
1	101	21.684140706699	1
1	109	22.661004780769	1
1	111	22.777960190561	1
1	115	23	1
1	117	23.159516033935	1
1	125	24	1
1	127	24.245785414813	1
1	140	25	1
1	142	25.365599780566	1
1	146	25.5	1
1	148	25.811019242485	1
1	150	25.93740787891	1
1	152	26	1
1	156	26.5	1
1	162	27.5	1
1	166	28	1
1	168	28.061645075911	1
1	174	29	1
1	180	29.5	1
1	186	30	1
1	188	30.064885598418	1
1	194	30.5	1
1	196	30.922781239492	1
1	198	31	1
1	200	31.30634145359	1
1	206	31.5	1
1	210	32.348122107769	1
1	214	32.5	1
1	216	32.528374359753	1
1	224	33.5	1
1	228	33.857132233503	1
1	232	34	1
1	236	34.5	1
1	238	34.715525201331	1
1	244	35	1
1	246	35.5	1
1	248	35.734183931349	1
1	257	37.5	1
1	259	37.607643811206	1
1	263	37.869701052881	1
1	269	38.802103933287	1
1	271	39.161031149156	1
1	273	39.503630773854	1
1	281	40.88660998039	1
1	285	40.995157078884	1
1	287	41.5	1
1	289	41.888886157189	1
1	299	42.944735765848	1
1	301	43.194817260825	1
1	305	43.5	1
1	307	43.767278812253	1
1	309	44.361352310576	1
1	313	45.613959835487	1
1	317	47.5	1
1	328	51.5	1
1	330	52.379350355424	1
1	334	52.5	1
1	342	53.5	1
1	344	53.574788921706	1
1	346	54.021041742225	1
1	354	54.5	1
1	360	55.330340106247	1
1	362	55.386210159135	1
1	364	55.5	1
1	372	56	1
1	374	56.008807503113	1
1	378	56.945946220836	1
1	380	56.978303025481	1
1	384	57	1
1	388	57.158260367032	1
1	394	58	1
1	396	58.019184003712	1
1	404	58.971013711254	1
1	408	59	1
1	410	59.209766584101	1
1	412	59.456625852899	1
1	414	59.5	1
1	418	60	1
1	426	61	1
1	428	61.5	1
1	435	62	1
1	437	62.971104533435	1
1	441	63	1
1	447	64	1
1	449	64.108643038975	1
1	453	65	1
1	457	66	1
1	461	67	1
1	469	68	1
1	473	68.5	1
1	475	68.748295565348	1
1	479	69	1
1	485	69.133983259393	1
1	491	70	1
1	493	70.021485187876	1
1	495	70.021540539771	1
1	497	70.341115194643	1
1	501	70.5	1
1	505	71.5	1
1	509	71.940834636483	1
1	515	72.601337716232	1
1	520	73.5	1
1	522	74.15600065404	1
1	534	75.4669730222	1
1	536	75.5	1
1	538	75.673331015804	1
1	540	75.814973050599	1
1	544	76.31925298385	1
1	550	77.152631224495	1
1	552	77.332905524073	1
1	554	77.466246147345	1
1	562	79.5	1
1	566	80.28688209576	1
1	568	80.384049774127	1
1	572	80.629247866769	1
1	580	81.5	1
1	584	82.01256433292	1
1	586	82.350719047764	1
1	588	82.456406221868	1
1	595	84.5	1
1	597	85.108964737388	1
1	601	88.367885714572	1
1	607	90.478774488954	1
1	613	91.14461697559	1
1	615	91.5	1
1	626	93.21837843869	1
1	630	93.678169756465	1
1	632	93.825394793778	1
1	636	94.17899136904	1
1	638	94.281959732759	1
1	640	95.124096035596	1
1	646	96.611525789935	1
1	656	97.121516623784	1
1	660	97.644484277439	1
1	662	97.908754741574	1
1	664	97.963662114125	1
1	666	97.975155364333	1
1	670	98.5	1
1	674	99.447359522326	1
1	676	100.01325406396	1
1	686	101.408123155223	1
1	692	101.88460173782	1
1	697	102.199761766535	1
1	699	102.5	1
1	701	102.808826221858	1
1	703	103.008681759778	1
1	709	104.56242726181	1
1	711	104.620955160756	1
1	715	105.814968531351	1
1	727	107.323183762978	1
1	731	107.623508843263	1
1	733	107.695927953377	1
1	737	108.159317980916	1
1	739	108.204956030411	1
1	741	108.5	1
1	748	109.813373879496	1
1	750	109.968659465	1
1	758	111.016948569956	1
1	760	111.154901801885	1
1	762	111.313913818684	1
1	772	113.657153748776	1
1	774	114.267636593773	1
1	776	114.354253588219	1
1	778	114.5	1
1	784	115.642215563294	1
1	786	115.669657663724	1
1	794	116.984179761808	1
1	796	117.352762701418	1
1	798	117.617855802824	1
1	813	120.651798375221	1
1	815	121.160017829273	1
1	817	121.224783522062	1
1	821	121.52411190448	1
1	823	121.557983759722	1
1	825	122.5	1
1	829	124.751745632404	1
1	837	126.618386102584	1
1	839	127.386848679975	1
1	841	127.5	1
1	851	128.527127556894	1
1	855	128.922693157289	1
1	860	129.187628094926	1
1	868	129.747636468256	1
1	870	130.037909883379	1
1	874	130.287860700028	1
1	878	130.5	1
1	880	130.579806771756	1
1	884	131.255162641928	1
1	886	131.433039399784	1
1	890	131.808101342902	1
1	896	132.5	1
1	900	133.426762409321	1
1	904	133.5	1
1	911	134.5	1
1	913	134.57742500225	1
1	917	135.084148216149	1
1	921	135.680320107545	1
1	925	136.5	1
1	927	137.367538396302	1
1	931	138.5	1
1	937	139.720873164375	1
1	941	140.5	1
1	947	141.5	1
1	949	141.942087347574	1
1	953	142.5	1
1	961	143.5	1
1	967	144	1
1	969	144.076789742114	1
1	973	144.5	1
1	975	144.545667897741	1
1	979	145	1
1	983	145.5	1
1	985	145.685463304405	1
1	991	146.5	1
1	995	147	1
1	999	147.5	1
1	1001	147.512989572221	1
1	1005	148.5	1
1	1011	149	1
1	1018	150	1
1	1022	150.370414920037	1
1	1024	150.716848247531	1
1	1034	151.310178815791	1
1	1038	151.792754030951	1
1	1040	151.867945840114	1
1	1042	151.887435133065	1
1	1044	152	1
1	1046	152.78448814717	1
1	1052	154	1
1	1054	155	1
1	1060	156.503896458069	1
1	1062	157	1
1	1072	158.693543172627	1
1	1077	159	1
1	1079	159.676071515349	1
1	1081	160	1
1	1087	162	1
1	1093	162.57118913237	1
1	1097	163.187782220893	1
1	1099	163.212615428639	1
1	1103	163.660703397014	1
1	1109	164.359284403093	1
1	1115	164.913552876506	1
1	1119	165	1
1	1123	165.5	1
1	1125	165.887025420151	1
1	1131	166	1
1	1133	166.122431286655	1
1	1135	166.983145994168	1
1	1137	167	1
1	1145	168.097756997167	1
1	1154	169	1
1	1156	169.139601461987	1
1	1160	169.5	1
1	1164	170	1
1	1166	170.5	1
1	1172	171	1
1	1174	171.659490155833	1
1	1178	172	1
1	1182	173	1
1	1186	173.412938274109	1
1	1190	174.199621389568	1
1	1194	174.676619140512	1
1	1196	175.457787930499	1
1	1200	177	1
1	1208	178.025720559201	1
1	1210	178.138250505579	1
1	1214	178.518761454141	1
1	1218	179.346087377744	1
1	1222	179.520997637839	1
1	1228	180.432143445909	1
1	1230	181	1
1	1232	181.301758806746	1
