version 2
run ACBannedIP-0-20130107-19:44:01-2780
attr configname ACBannedIP
attr datetime 20130107-19:44:01
attr experiment ACBannedIP
attr inifile omnetpp.ini
attr iterationvars ""
attr iterationvars2 $repetition=0
attr measurement ""
attr network tirtproject.AdmissionControl.ACBannedIP
attr processid 2780
attr repetition 0
attr replication #0
attr resultdir results
attr runnumber 0
attr seedset 0

vector 0  ACBannedIP.OnOff  "Changes vector"  ETV
attr interpolationmode  none
vector 1  ACBannedIP.AC  "Arrivals AC"  ETV
attr interpolationmode  none
vector 2  ACBannedIP.sink  arrivals  ETV
attr interpolationmode  none
0	1	0	1
0	3	0.64944634825	1
0	3	0.64944634825	0
0	8	1.402120461562	0
0	8	1.402120461562	1
0	26	4.00037454741	1
0	36	5.787862210848	1
0	36	5.787862210848	0
0	41	7.828754426759	0
0	44	8.964693368469	0
0	45	10.239921070692	0
0	46	11.112242265734	0
0	47	11.883076924201	0
0	50	12.620904215956	0
0	50	12.620904215956	1
0	56	13.956194400579	1
0	58	14.200242891315	1
0	58	14.200242891315	0
0	59	14.345520918607	0
0	60	14.737291729283	0
0	60	14.737291729283	1
0	62	14.899428218728	1
0	62	14.899428218728	0
0	69	15.150870150802	0
0	70	15.594274179422	0
0	70	15.594274179422	1
0	79	16.983316869213	1
0	79	16.983316869213	0
0	80	17.919378428984	0
0	80	17.919378428984	1
0	82	18.312490986288	1
0	82	18.312490986288	0
0	83	18.889815297094	0
0	83	18.889815297094	1
0	97	23.34431214327	1
0	99	23.972253724261	1
0	99	23.972253724261	0
0	100	24.252530732739	0
0	100	24.252530732739	1
0	104	24.425658188885	1
0	106	24.542613598677	1
0	108	24.924169442051	1
0	108	24.924169442051	0
0	117	26.430804775323	0
0	122	27.405906709479	0
0	123	27.988785098345	0
0	125	28.116841863656	0
0	126	28.772488148019	0
0	127	29.939361674567	0
0	127	29.939361674567	1
0	135	32.063598871568	1
0	137	32.896442387634	1
0	145	34.899682910141	1
0	149	35.757578551215	1
0	149	35.757578551215	0
0	154	38.406834479891	0
0	161	40.254162130892	0
0	162	40.412503637122	0
0	163	40.727225297976	0
0	163	40.727225297976	1
0	172	42.055983171726	1
0	172	42.055983171726	0
0	175	43.46700758102	0
0	176	43.971351387607	0
0	176	43.971351387607	1
0	186	46.235084963467	1
0	186	46.235084963467	0
0	193	50.07809154671	0
0	194	50.58040234497	0
0	198	51.544855910463	0
0	198	51.544855910463	1
0	200	51.903783126332	1
0	200	51.903783126332	0
0	203	52.983103324987	0
0	203	52.983103324987	1
0	205	53.325702949685	1
0	205	53.325702949685	0
0	208	54.288078005456	0
0	209	54.848039075529	0
0	210	54.993613053976	0
0	210	54.993613053976	1
0	212	55.347837186221	1
0	212	55.347837186221	0
0	217	56.191725658811	0
0	220	59.664261138093	0
0	223	60.228871639213	0
0	223	60.228871639213	1
0	225	60.801333190641	1
0	225	60.801333190641	0
0	232	63.026247847866	0
0	233	63.131129683466	0
0	233	63.131129683466	1
0	241	64.383737208377	1
0	241	64.383737208377	0
0	243	65.893560663986	0
0	243	65.893560663986	1
0	249	67.895547159511	1
0	249	67.895547159511	0
0	250	67.967222543823	0
0	250	67.967222543823	1
0	256	69.162661110105	1
0	256	69.162661110105	0
0	257	69.766960181952	0
0	260	71.047294385764	0
0	261	71.064062151756	0
0	262	71.326391460922	0
0	265	72.77418554291	0
0	275	75.658797295012	0
0	275	75.658797295012	1
0	283	77.734828355454	1
0	285	77.767185160099	1
0	287	77.94714250165	1
0	287	77.94714250165	0
0	294	78.918624659744	0
0	294	78.918624659744	1
0	296	79.779548296424	1
0	296	79.779548296424	0
0	306	84.658681184417	0
0	306	84.658681184417	1
0	316	88.173159864953	1
0	316	88.173159864953	0
0	317	88.842273588642	0
0	317	88.842273588642	1
0	327	90.970943683173	1
0	331	91.168911418506	1
0	331	91.168911418506	0
0	332	91.238529089579	0
0	332	91.238529089579	1
0	342	92.376067595119	1
0	348	93.145187396215	1
0	348	93.145187396215	0
0	351	93.754020309952	0
0	351	93.754020309952	1
0	359	96.122938480788	1
0	361	96.606576868277	1
0	368	97.49407879676	1
0	368	97.49407879676	0
0	371	97.867842090576	0
0	371	97.867842090576	1
0	375	98.422012919624	1
0	375	98.422012919624	0
0	378	100.587776600498	0
0	378	100.587776600498	1
0	384	101.72683425117	1
0	384	101.72683425117	0
0	390	103.849580905111	0
0	391	104.402419275762	0
0	391	104.402419275762	1
0	393	104.871095751738	1
0	393	104.871095751738	0
0	396	105.493925061502	0
0	397	105.819141079478	0
0	397	105.819141079478	1
0	399	106.70292673551	1
0	399	106.70292673551	0
0	404	108.696965936786	0
0	407	109.915965281967	0
0	407	109.915965281967	1
0	411	110.538002201048	1
0	411	110.538002201048	0
0	415	111.818426555026	0
0	416	113.192769569446	0
0	416	113.192769569446	1
0	418	113.289937247813	1
0	420	113.535135340455	1
0	430	114.918451806606	1
0	434	115.25660652145	1
0	436	115.362293695554	1
0	436	115.362293695554	0
0	437	115.378859789975	0
0	437	115.378859789975	1
0	448	118.031418305495	1
0	450	118.696226055046	1
0	460	122.490249838133	1
0	460	122.490249838133	0
0	461	125.326890031508	0
0	466	126.932348794575	0
0	470	127.246346692638	0
0	471	127.774813920939	0
0	472	129.501447300681	0
0	473	129.711980588885	0
0	474	129.840560826161	0
0	475	133.78819409372	0
0	476	134.309272914804	0
0	476	134.309272914804	1
0	478	135.151409217641	1
0	478	135.151409217641	0
0	488	138.391372184541	0
0	488	138.391372184541	1
0	490	139.153795868755	1
0	490	139.153795868755	0
0	493	139.517038087656	0
0	494	141.661423552169	0
0	494	141.661423552169	1
0	496	141.949936262517	1
0	496	141.949936262517	0
0	501	143.064823684424	0
0	501	143.064823684424	1
0	503	143.961152889444	1
0	508	144.608327593487	1
0	510	144.912299152715	1
0	514	145.521363608038	1
0	514	145.521363608038	0
0	519	146.671104995787	0
0	519	146.671104995787	1
0	527	148.585947253429	1
0	531	149.779960624024	1
0	535	151.288175855651	1
0	535	151.288175855651	0
0	536	152.790588649361	0
0	536	152.790588649361	1
0	538	153.090913729646	1
0	538	153.090913729646	0
0	539	153.55902018288	0
0	539	153.55902018288	1
0	543	154.444780828909	1
0	543	154.444780828909	0
0	546	154.763364676788	0
0	546	154.763364676788	1
0	552	155.226754704327	1
0	556	155.789579906144	1
0	556	155.789579906144	0
0	562	156.502964188944	0
0	563	157.271217530811	0
0	563	157.271217530811	1
0	567	158.415012909929	1
0	567	158.415012909929	0
0	568	158.740183780417	0
0	568	158.740183780417	1
0	570	158.878137012346	1
0	570	158.878137012346	0
0	571	159.376829345216	0
0	571	159.376829345216	1
0	577	162.509658834762	1
0	577	162.509658834762	0
0	578	162.716844017013	0
0	578	162.716844017013	1
0	585	165.060083947105	1
0	585	165.060083947105	0
0	586	165.615742860263	0
0	586	165.615742860263	1
0	590	166.256716405526	1
0	594	166.625299345136	1
0	596	166.890392446542	1
0	596	166.890392446542	0
0	601	167.590418082657	0
0	604	169.540394994503	0
0	605	170.151452555788	0
0	605	170.151452555788	1
0	609	173.185395128185	1
0	611	174.042830230798	1
0	617	175.761899542586	1
0	617	175.761899542586	0
0	625	178.157079331975	0
0	626	178.654288618317	0
0	626	178.654288618317	1
0	628	179.413253392565	1
0	634	181.279893862745	1
0	636	182.048356440136	1
0	642	183.188635317055	1
0	642	183.188635317055	0
0	643	184.128137302918	0
0	644	184.23180813956	0
0	645	184.8372419212	0
0	645	184.8372419212	1
0	649	185.232807521595	1
0	653	185.952452419283	1
0	658	186.242725834406	1
0	660	186.492676651055	1
0	662	186.784622722783	1
0	662	186.784622722783	0
0	663	186.925098439738	0
0	664	186.937207684799	0
0	667	187.059922692115	0
0	676	190.719484810576	0
0	680	192.248423681287	0
0	680	192.248423681287	1
0	682	192.800225802925	1
0	686	193.358552592189	1
0	692	195.087672229871	1
0	694	195.62357102521	1
0	696	196.070710927807	1
0	696	196.070710927807	0
0	701	197.834798319995	0
0	701	197.834798319995	1
0	705	200.424624465492	1
0	707	200.471723736547	1
0	707	200.471723736547	0
0	708	200.736506009885	0
0	711	201.165013614064	0
0	719	204.17998188625	0
0	719	204.17998188625	1
0	721	204.648860041877	1
0	727	205.788655448541	1
0	729	205.977220172792	1
0	729	205.977220172792	0
0	730	206.573770089668	0
0	733	206.936848929852	0
0	733	206.936848929852	1
0	737	208.764375197668	1
0	737	208.764375197668	0
0	738	209.462312746499	0
0	738	209.462312746499	1
0	742	212.319738094315	1
0	742	212.319738094315	0
0	745	213.324853742887	0
0	745	213.324853742887	1
0	750	214.555572593917	1
0	750	214.555572593917	0
0	751	214.629078971335	0
0	751	214.629078971335	1
0	753	214.975512298829	1
0	753	214.975512298829	0
0	754	215.140805311149	0
0	759	216.331786764545	0
0	759	216.331786764545	1
0	763	217.22883977865	1
0	763	217.22883977865	0
0	766	219.499549886046	0
0	767	220.366841904876	0
0	767	220.366841904876	1
0	774	224.086250215775	1
0	774	224.086250215775	0
0	775	224.457865970602	0
0	776	225.202244231999	0
0	777	226.590921505866	0
0	778	226.996647849732	0
0	783	229.575760980517	0
0	784	230.064869391137	0
0	787	231.038747982616	0
0	788	231.069449755627	0
0	790	232.308486263005	0
0	791	232.316401609511	0
0	791	232.316401609511	1
0	793	232.341234817257	1
0	793	232.341234817257	0
0	796	234.893711310804	0
0	797	234.987466698413	0
0	798	235.508245563283	0
0	798	235.508245563283	1
0	800	236.062514036696	1
0	804	237.035986580341	1
0	808	237.363196961667	1
0	810	237.598602828171	1
0	812	237.721565395058	1
0	818	238.582280102571	1
0	818	238.582280102571	0
0	825	239.356796890505	0
0	828	242.647445720764	0
0	829	242.664461344493	0
0	830	243.245469999952	0
0	830	243.245469999952	1
0	832	243.95842647908	1
0	834	243.987958290243	1
0	845	246.507846984089	1
0	847	247.282460720445	1
0	855	249.46517460973	1
0	861	250.60679013325	1
0	867	254.057800262609	1
0	869	254.438311211171	1
0	869	254.438311211171	0
0	870	254.721383647018	0
0	870	254.721383647018	1
0	875	255.548709570621	1
0	879	255.723619830716	1
0	883	256.634765638786	1
0	883	256.634765638786	0
0	886	256.90663147736	0
0	886	256.90663147736	1
0	888	257.776246838197	1
0	892	257.933918891026	1
0	896	258.342836420272	1
0	896	258.342836420272	0
0	897	258.405859864529	0
0	897	258.405859864529	1
0	906	260.78892813772	1
0	906	260.78892813772	0
0	907	262.135555426256	0
0	910	264.418949460675	0
0	910	264.418949460675	1
0	919	268.307594183444	1
0	919	268.307594183444	0
0	920	268.82379763838	0
0	921	269.096148864734	0
0	922	269.818751102269	0
0	922	269.818751102269	1
0	924	270.277502404915	1
0	928	270.887264577773	1
0	932	271.298965155645	1
0	936	272.197367522081	1
0	936	272.197367522081	0
0	939	272.635106978194	0
0	939	272.635106978194	1
0	943	273.705189467821	1
0	943	273.705189467821	0
0	944	274.761630462002	0
0	944	274.761630462002	1
0	948	275.838020921419	1
0	952	276.344284888501	1
0	952	276.344284888501	0
0	953	276.662054229882	0
0	953	276.662054229882	1
0	955	276.747675023992	1
0	968	278.196996893467	1
0	968	278.196996893467	0
0	969	278.764884586586	0
0	970	279.158101873576	0
0	971	280.033740671666	0
0	972	282.789953749143	0
0	973	284.674818363347	0
0	973	284.674818363347	1
0	981	287.421070233571	1
0	981	287.421070233571	0
0	982	289.711327453471	0
0	982	289.711327453471	1
0	984	289.720298840805	1
0	986	290.409009684761	1
0	986	290.409009684761	0
0	991	291.279089595128	0
0	992	291.555577279229	0
0	992	291.555577279229	1
0	994	291.740733332714	1
0	1003	293.70385662227	1
0	1003	293.70385662227	0
0	1008	297.122993124956	0
0	1008	297.122993124956	1
0	1010	297.640160052026	1
0	1010	297.640160052026	0
0	1013	298.150672627961	0
0	1013	298.150672627961	1
0	1015	298.282884227789	1
0	1021	299.533832888447	1
0	1027	300.553228076515	1
0	1027	300.553228076515	0
0	1033	302.281487449482	0
0	1033	302.281487449482	1
0	1035	302.800741174362	1
0	1035	302.800741174362	0
0	1038	303.320563119242	0
0	1039	303.707760586483	0
0	1039	303.707760586483	1
0	1041	303.738168580247	1
0	1047	305.074736997569	1
0	1047	305.074736997569	0
0	1048	305.831591314795	0
0	1049	305.920677272285	0
0	1049	305.920677272285	1
0	1055	307.016327142534	1
0	1057	307.781866224808	1
0	1064	308.299789669878	1
0	1072	309.772402532421	1
0	1074	310.239555758881	1
0	1076	310.491695435313	1
0	1076	310.491695435313	0
0	1077	310.575655475346	0
0	1077	310.575655475346	1
0	1079	310.664826557614	1
0	1079	310.664826557614	0
0	1080	310.67355445392	0
0	1081	310.69881557572	0
0	1081	310.69881557572	1
0	1085	310.85463476183	1
0	1091	311.575687166249	1
0	1091	311.575687166249	0
0	1094	311.827561950942	0
0	1094	311.827561950942	1
0	1098	311.884245832099	1
0	1098	311.884245832099	0
0	1101	314.305582478542	0
0	1101	314.305582478542	1
0	1112	316.467987421267	1
0	1116	318.728387868642	1
0	1120	320.777125862215	1
0	1120	320.777125862215	0
0	1121	321.878521940522	0
0	1129	326.248521691949	0
0	1129	326.248521691949	1
0	1133	328.158076710452	1
0	1133	328.158076710452	0
0	1134	328.661502825906	0
0	1135	328.709440025488	0
0	1135	328.709440025488	1
0	1143	332.240681425979	1
0	1149	333.400197391984	1
0	1151	333.955229117298	1
0	1154	334.053828617496	1
0	1154	334.053828617496	0
0	1163	337.89574492096	0
0	1163	337.89574492096	1
0	1165	338.744011730799	1
0	1165	338.744011730799	0
0	1168	340.234260817477	0
0	1168	340.234260817477	1
0	1172	342.537867694106	1
0	1176	343.055896751224	1
0	1178	343.299826421085	1
0	1180	343.481405638745	1
0	1192	346.042199553512	1
0	1194	346.390448187692	1
0	1194	346.390448187692	0
0	1195	346.993926980121	0
0	1198	347.675062258219	0
0	1199	349.180913401299	0
0	1202	351.040319973717	0
0	1208	354.746310611038	0
0	1209	354.860171268343	0
0	1210	355.700004769728	0
0	1211	355.983106598718	0
0	1211	355.983106598718	1
0	1218	358.721129893991	1
0	1222	359.009343061899	1
0	1222	359.009343061899	0
0	1227	360.030175480951	0
0	1228	361.211580879542	0
0	1231	362.432861056447	0
0	1234	364.711170799254	0
0	1234	364.711170799254	1
0	1241	366.180704115123	1
0	1241	366.180704115123	0
0	1242	366.569337681354	0
0	1243	367.514355671965	0
0	1243	367.514355671965	1
0	1245	367.97263023502	1
0	1255	369.268086898946	1
0	1255	369.268086898946	0
0	1256	369.822171043793	0
0	1256	369.822171043793	1
0	1258	370.055684749831	1
0	1258	370.055684749831	0
0	1259	370.148072268586	0
0	1259	370.148072268586	1
0	1263	371.069951526865	1
0	1263	371.069951526865	0
0	1268	372.69396197066	0
0	1268	372.69396197066	1
0	1274	373.993161303092	1
0	1274	373.993161303092	0
0	1286	375.081777476145	0
0	1291	375.691848267421	0
0	1291	375.691848267421	1
0	1293	375.805252989613	1
0	1293	375.805252989613	0
0	1312	377.505376918877	0
0	1312	377.505376918877	1
0	1316	378.032545708573	1
0	1316	378.032545708573	0
0	1319	378.500169785841	0
0	1322	379.225093222149	0
0	1327	381.423858511814	0
0	1330	382.576269531191	0
0	1340	384.740896706867	0
0	1340	384.740896706867	1
0	1342	385.155853289591	1
0	1342	385.155853289591	0
0	1347	386.072676326887	0
0	1347	386.072676326887	1
0	1349	386.369623385668	1
0	1349	386.369623385668	0
0	1354	387.385336058724	0
0	1354	387.385336058724	1
0	1360	388.815555406981	1
0	1364	389.700772251632	1
0	1364	389.700772251632	0
0	1367	391.359365638537	0
0	1370	391.951540442514	0
0	1376	394.416300578935	0
0	1379	394.838704028337	0
0	1379	394.838704028337	1
0	1385	396.848212645037	1
0	1387	397.430393698173	1
0	1391	398.096724574196	1
0	1395	398.691600830087	1
0	1395	398.691600830087	0
0	1400	399.530574113015	0
0	1400	399.530574113015	1
0	1406	401.546391577352	1
0	1406	401.546391577352	0
0	1411	402.534540230517	0
0	1415	403.611198879369	0
0	1416	404.902161584955	0
0	1416	404.902161584955	1
0	1418	405.081872644198	1
0	1418	405.081872644198	0
0	1421	406.461087994935	0
0	1422	407.148962766417	0
0	1422	407.148962766417	1
0	1424	407.240401414458	1
0	1424	407.240401414458	0
0	1431	409.231617054953	0
0	1432	412.131115708629	0
0	1433	412.859529684038	0
0	1433	412.859529684038	1
0	1437	413.668413372655	1
0	1442	414.073486601837	1
0	1442	414.073486601837	0
0	1443	414.178550434738	0
0	1443	414.178550434738	1
0	1447	414.824030205763	1
0	1457	416.538953309863	1
0	1461	418.5302098012	1
0	1463	418.601546807615	1
0	1469	419.824736548165	1
0	1469	419.824736548165	0
0	1470	420.197018331303	0
0	1470	420.197018331303	1
0	1474	421.465090255157	1
0	1476	421.874529567826	1
0	1482	423.175642205687	1
0	1490	424.864120033711	1
0	1490	424.864120033711	0
0	1493	425.288012374035	0
0	1494	425.902292652651	0
0	1494	425.902292652651	1
0	1497	426.291392711055	1
0	1497	426.291392711055	0
0	1498	426.671922421148	0
0	1501	427.330830967985	0
0	1501	427.330830967985	1
0	1503	427.402523186038	1
0	1509	429.515921470321	1
0	1509	429.515921470321	0
0	1510	430.843244442809	0
0	1510	430.843244442809	1
0	1512	431.037435421589	1
0	1522	433.836958190053	1
0	1522	433.836958190053	0
0	1523	434.731158180267	0
0	1523	434.731158180267	1
0	1527	437.278609431158	1
0	1527	437.278609431158	0
0	1530	438.914719171754	0
0	1530	438.914719171754	1
0	1532	438.926965010597	1
0	1532	438.926965010597	0
0	1534	439.316797257114	0
0	1537	441.209388586183	0
0	1537	441.209388586183	1
0	1543	442.398556660689	1
0	1547	443.051920127902	1
0	1547	443.051920127902	0
0	1550	443.938572262509	0
0	1550	443.938572262509	1
0	1554	446.220922827494	1
0	1566	448.750054267461	1
0	1568	448.795025935399	1
0	1580	450.911309783437	1
0	1580	450.911309783437	0
0	1583	451.191521261542	0
0	1609	454.263609901766	0
0	1609	454.263609901766	1
0	1650	460.491042069744	1
0	1650	460.491042069744	0
0	1655	460.566578530653	0
0	1655	460.566578530653	1
0	1663	461.837364650031	1
0	1665	462.268136563109	1
0	1665	462.268136563109	0
0	1668	462.561678966454	0
0	1668	462.561678966454	1
0	1678	464.680748919241	1
0	1678	464.680748919241	0
0	1679	465.448192842278	0
0	1679	465.448192842278	1
0	1685	466.051006746655	1
0	1687	466.407952382938	1
0	1687	466.407952382938	0
0	1694	466.970274807904	0
0	1694	466.970274807904	1
0	1702	467.648794356386	1
0	1702	467.648794356386	0
0	1709	468.0501686316	0
0	1709	468.0501686316	1
0	1711	468.064130699854	1
0	1713	468.725300383977	1
0	1713	468.725300383977	0
0	1718	469.021167591163	0
0	1723	469.393143599588	0
0	1724	469.524006535366	0
0	1724	469.524006535366	1
0	1728	470.180581177849	1
0	1728	470.180581177849	0
0	1729	470.276792672018	0
0	1729	470.276792672018	1
0	1733	470.537217741506	1
0	1733	470.537217741506	0
0	1740	471.693718507661	0
0	1740	471.693718507661	1
0	1746	472.492347338097	1
0	1746	472.492347338097	0
0	1751	472.57931251578	0
0	1751	472.57931251578	1
0	1768	474.931368400851	1
0	1772	475.136485376362	1
0	1772	475.136485376362	0
0	1773	475.25178820022	0
0	1773	475.25178820022	1
0	1775	475.55919635038	1
0	1775	475.55919635038	0
0	1788	479.251870071593	0
0	1792	481.840003737963	0
0	1792	481.840003737963	1
0	1794	481.96815232386	1
0	1794	481.96815232386	0
0	1799	483.374245840926	0
0	1799	483.374245840926	1
0	1805	485.537259039981	1
0	1805	485.537259039981	0
0	1810	486.960153301457	0
0	1821	490.373066564139	0
0	1831	492.020302567172	0
0	1831	492.020302567172	1
0	1833	492.49086704338	1
0	1833	492.49086704338	0
0	1838	493.515670288301	0
0	1838	493.515670288301	1
0	1844	494.774566293453	1
0	1868	498.598291867122	1
0	1868	498.598291867122	0
0	1869	498.879697601485	0
0	1869	498.879697601485	1
0	1873	499.876200541932	1
0	1890	506.087814918319	1
0	1894	508.329989575427	1
0	1900	509.185800895681	1
0	1900	509.185800895681	0
0	1906	510.33694865983	0
0	1907	510.445030967111	0
0	1907	510.445030967111	1
0	1909	510.626900109193	1
0	1911	510.901982422951	1
0	1911	510.901982422951	0
0	1912	511.151121318121	0
0	1912	511.151121318121	1
0	1920	512.387963581203	1
0	1926	513.856048494035	1
0	1926	513.856048494035	0
0	1931	514.029680367823	0
0	1931	514.029680367823	1
0	1933	514.342624221526	1
0	1945	515.953340940293	1
0	1951	517.706679644394	1
0	1953	517.768911861621	1
0	1953	517.768911861621	0
0	1965	520.053581000577	0
0	1976	521.901287620891	0
0	1976	521.901287620891	1
0	1982	522.581697473428	1
0	1990	523.541262451942	1
0	1990	523.541262451942	0
0	1998	526.230681840358	0
0	1998	526.230681840358	1
0	2006	528.119314796792	1
0	2010	530.543512550853	1
0	2010	530.543512550853	0
0	2011	532.16479915354	0
0	2011	532.16479915354	1
0	2013	532.164859725335	1
0	2013	532.164859725335	0
0	2016	533.20674162423	0
0	2019	534.324197825921	0
0	2022	534.682744410527	0
0	2023	536.092788701265	0
0	2024	536.512739412536	0
0	2024	536.512739412536	1
0	2028	538.481073852711	1
0	2028	538.481073852711	0
0	2033	539.539503661113	0
0	2033	539.539503661113	1
0	2039	541.154330455595	1
0	2041	541.262350001612	1
0	2041	541.262350001612	0
0	2045	542.791472235876	0
0	2045	542.791472235876	1
0	2047	542.854297267872	1
0	2047	542.854297267872	0
0	2048	543.014910875823	0
0	2051	544.498858342849	0
0	2052	545.33747704692	0
0	2052	545.33747704692	1
0	2067	549.411968294968	1
0	2067	549.411968294968	0
0	2076	550.88705534224	0
0	2076	550.88705534224	1
0	2082	551.329660216384	1
0	2082	551.329660216384	0
0	2085	551.882791437503	0
0	2092	552.974022354092	0
0	2092	552.974022354092	1
0	2098	553.063722364166	1
0	2098	553.063722364166	0
0	2107	554.062630134076	0
0	2114	555.10201882313	0
0	2114	555.10201882313	1
0	2116	555.326351275577	1
0	2122	555.738600649547	1
0	2122	555.738600649547	0
0	2146	559.671326384197	0
0	2153	561.192669749239	0
0	2154	561.349833171601	0
0	2163	566.29562086579	0
0	2164	566.673989572857	0
0	2167	569.006815890111	0
0	2168	569.974540928233	0
0	2170	570.142237476847	0
0	2173	571.755676382961	0
0	2174	571.863614457788	0
0	2177	572.209176194501	0
0	2177	572.209176194501	1
0	2179	572.359703515457	1
0	2179	572.359703515457	0
0	2180	572.761071478451	0
0	2181	572.813473877255	0
0	2181	572.813473877255	1
0	2185	573.215847088536	1
0	2187	573.601989513973	1
0	2187	573.601989513973	0
0	2192	576.53582121178	0
0	2193	576.992284825805	0
0	2193	576.992284825805	1
0	2195	577.017365795367	1
0	2195	577.017365795367	0
0	2196	577.035294229743	0
0	2206	580.208855362437	0
0	2207	582.366131831186	0
0	2208	583.832142924633	0
0	2209	585.076488002483	0
0	2209	585.076488002483	1
0	2211	585.131719087052	1
0	2213	585.6362690151	1
0	2215	585.819513979846	1
0	2229	587.544946004554	1
0	2231	587.559300042521	1
0	2231	587.559300042521	0
0	2236	589.598352875192	0
0	2237	589.989992476338	0
0	2237	589.989992476338	1
0	2242	591.541938241421	1
0	2242	591.541938241421	0
0	2243	591.719213428983	0
0	2244	591.804315109054	0
0	2245	592.524185634829	0
0	2245	592.524185634829	1
0	2247	592.774353264168	1
0	2247	592.774353264168	0
0	2248	593.038731001339	0
0	2248	593.038731001339	1
0	2252	593.78510311342	1
0	2252	593.78510311342	0
0	2255	594.056286222961	0
0	2256	594.756355868686	0
0	2256	594.756355868686	1
0	2258	594.974977344303	1
0	2258	594.974977344303	0
0	2259	595.002428941974	0
0	2260	595.090362287279	0
0	2260	595.090362287279	1
0	2264	595.81835224412	1
0	2264	595.81835224412	0
0	2267	596.858197425699	0
0	2267	596.858197425699	1
0	2269	597.495355217122	1
0	2269	597.495355217122	0
0	2270	597.496072435017	0
0	2270	597.496072435017	1
0	2272	597.846895925085	1
0	2272	597.846895925085	0
0	2279	598.798042438714	0
1	6	1	1
1	10	2	1
1	14	2.402120461562	1
1	16	3	1
1	22	4	1
1	28	4.5	1
1	30	5	1
1	34	5.00037454741	1
1	37	6	1
1	42	8	1
1	52	13	1
1	54	13.620904215956	1
1	63	14.956194400579	1
1	72	15.737291729283	1
1	75	16	1
1	77	16.594274179422	1
1	85	18.919378428984	1
1	89	19.889815297094	1
1	91	20	1
1	95	23	1
1	102	24.34431214327	1
1	109	25.252530732739	1
1	111	25.425658188885	1
1	113	25.542613598677	1
1	120	27	1
1	129	30.939361674567	1
1	133	32	1
1	139	33.063598871568	1
1	141	33.896442387634	1
1	147	35	1
1	150	35.899682910141	1
1	155	39	1
1	166	41	1
1	168	41.727225297976	1
1	173	43	1
1	180	44.971351387607	1
1	182	45	1
1	187	47	1
1	196	51	1
1	201	52.544855910463	1
1	206	53.983103324987	1
1	213	55.993613053976	1
1	218	57	1
1	226	61	1
1	228	61.228871639213	1
1	237	64	1
1	239	64.131129683466	1
1	245	66.893560663986	1
1	252	68	1
1	254	68.967222543823	1
1	263	72	1
1	270	74	1
1	277	76	1
1	279	76.658797295012	1
1	288	78	1
1	290	78.734828355454	1
1	292	78.767185160099	1
1	297	79.918624659744	1
1	304	82	1
1	310	85.658681184417	1
1	312	86	1
1	319	89	1
1	323	89.842273588642	1
1	325	90	1
1	334	91.970943683173	1
1	336	92	1
1	340	92.238529089579	1
1	344	93	1
1	349	93.376067595119	1
1	353	94	1
1	355	94.754020309952	1
1	366	97.122938480788	1
1	369	97.606576868277	1
1	373	98	1
1	376	98.867842090576	1
1	382	101.587776600498	1
1	387	102	1
1	394	105.402419275762	1
1	400	106.819141079478	1
1	405	109	1
1	412	110.915965281967	1
1	424	114.192769569446	1
1	426	114.289937247813	1
1	428	114.535135340455	1
1	432	115	1
1	439	115.918451806606	1
1	441	116.25660652145	1
1	443	116.378859789975	1
1	454	119.031418305495	1
1	456	119.696226055046	1
1	458	120	1
1	468	127	1
1	479	135.309272914804	1
1	485	137	1
1	491	139.391372184541	1
1	497	142.661423552169	1
1	506	144.064823684424	1
1	512	144.961152889444	1
1	515	145.608327593487	1
1	517	145.912299152715	1
1	523	147.671104995787	1
1	525	148	1
1	529	149.585947253429	1
1	533	150.779960624024	1
1	541	153.790588649361	1
1	544	154.55902018288	1
1	554	155.763364676788	1
1	558	156	1
1	560	156.226754704327	1
1	565	158.271217530811	1
1	573	159.740183780417	1
1	575	160.376829345216	1
1	580	163.716844017013	1
1	592	166.615742860263	1
1	597	167	1
1	599	167.256716405526	1
1	602	167.625299345136	1
1	607	171.151452555788	1
1	613	174.185395128185	1
1	615	175.042830230798	1
1	623	178	1
1	630	179.654288618317	1
1	632	180.413253392565	1
1	638	182.279893862745	1
1	640	183.048356440136	1
1	651	185.8372419212	1
1	656	186.232807521595	1
1	665	186.952452419283	1
1	668	187.242725834406	1
1	670	187.492676651055	1
1	674	189	1
1	684	193.248423681287	1
1	688	193.800225802925	1
1	690	194.358552592189	1
1	697	196.087672229871	1
1	699	196.62357102521	1
1	703	198.834798319995	1
1	712	201.424624465492	1
1	716	202	1
1	723	205.17998188625	1
1	725	205.648860041877	1
1	731	206.788655448541	1
1	735	207.936848929852	1
1	740	210.462312746499	1
1	748	214.324853742887	1
1	755	215.629078971335	1
1	761	217	1
1	764	217.331786764545	1
1	769	221.366841904876	1
1	781	229	1
1	794	233.316401609511	1
1	802	236.508245563283	1
1	806	237.062514036696	1
1	814	238.035986580341	1
1	816	238.363196961667	1
1	819	238.598602828171	1
1	821	238.721565395058	1
1	826	240	1
1	838	244.245469999952	1
1	840	244.95842647908	1
1	842	244.987958290243	1
1	849	247.507846984089	1
1	851	248.282460720445	1
1	857	250	1
1	859	250.46517460973	1
1	863	251.60679013325	1
1	873	255.057800262609	1
1	877	255.721383647018	1
1	881	256.548709570621	1
1	884	256.723619830716	1
1	890	257.90663147736	1
1	899	258.776246838197	1
1	901	258.933918891026	1
1	904	259.405859864529	1
1	912	265	1
1	914	265.418949460675	1
1	926	270.818751102269	1
1	930	271.277502404915	1
1	934	271.887264577773	1
1	937	272.298965155645	1
1	941	273.635106978194	1
1	946	275.761630462002	1
1	957	276.838020921419	1
1	962	277.662054229882	1
1	964	277.747675023992	1
1	966	278	1
1	977	285.674818363347	1
1	979	286	1
1	987	290.711327453471	1
1	989	290.720298840805	1
1	998	292.555577279229	1
1	1000	292.740733332714	1
1	1006	296	1
1	1011	298.122993124956	1
1	1017	299.150672627961	1
1	1019	299.282884227789	1
1	1025	300.533832888447	1
1	1031	302	1
1	1036	303.281487449482	1
1	1043	304.707760586483	1
1	1045	304.738168580247	1
1	1051	306.920677272285	1
1	1062	308.016327142534	1
1	1066	308.781866224808	1
1	1068	309	1
1	1070	309.299789669878	1
1	1083	310.772402532421	1
1	1087	311.239555758881	1
1	1089	311.575655475346	1
1	1092	311.69881557572	1
1	1096	311.85463476183	1
1	1099	312.827561950942	1
1	1107	315.305582478542	1
1	1110	316	1
1	1114	317.467987421267	1
1	1118	319.728387868642	1
1	1124	323	1
1	1131	327.248521691949	1
1	1137	329.709440025488	1
1	1141	332	1
1	1147	333.240681425979	1
1	1155	334.400197391984	1
1	1157	334.955229117298	1
1	1161	337	1
1	1166	338.89574492096	1
1	1170	341.234260817477	1
1	1182	343.537867694106	1
1	1184	344	1
1	1186	344.055896751224	1
1	1188	344.299826421085	1
1	1190	344.481405638745	1
1	1196	347.042199553512	1
1	1205	352	1
1	1213	356.983106598718	1
1	1223	359.721129893991	1
1	1225	360	1
1	1232	363	1
1	1238	365.711170799254	1
1	1249	368.514355671965	1
1	1251	368.97263023502	1
1	1253	369	1
1	1261	370.822171043793	1
1	1264	371.148072268586	1
1	1270	373	1
1	1272	373.69396197066	1
1	1282	375	1
1	1287	375.5	1
1	1294	376	1
1	1298	376.5	1
1	1302	376.691848267421	1
1	1304	377	1
1	1308	377.5	1
1	1314	378	1
1	1317	378.5	1
1	1320	378.505376918877	1
1	1325	380.5	1
1	1333	383.5	1
1	1338	384.5	1
1	1345	385.740896706867	1
1	1350	386.5	1
1	1352	387.072676326887	1
1	1356	388.385336058724	1
1	1362	389.5	1
1	1365	389.815555406981	1
1	1373	392.5	1
1	1381	395.5	1
1	1383	395.838704028337	1
1	1389	397.848212645037	1
1	1393	398.430393698173	1
1	1396	399.096724574196	1
1	1402	400.5	1
1	1404	400.530574113015	1
1	1413	403.5	1
1	1419	405.902161584955	1
1	1427	408.148962766417	1
1	1429	408.5	1
1	1439	413.859529684038	1
1	1445	414.668413372655	1
1	1449	415.178550434738	1
1	1453	415.824030205763	1
1	1455	416.5	1
1	1459	417.538953309863	1
1	1465	419.5302098012	1
1	1467	419.601546807615	1
1	1472	421.197018331303	1
1	1478	422.465090255157	1
1	1480	422.874529567826	1
1	1486	424.175642205687	1
1	1488	424.5	1
1	1499	426.902292652651	1
1	1505	428.330830967985	1
1	1507	428.402523186038	1
1	1514	431.843244442809	1
1	1516	432.037435421589	1
1	1520	433.5	1
1	1525	435.731158180267	1
1	1535	439.914719171754	1
1	1541	442.209388586183	1
1	1545	442.5	1
1	1548	443.398556660689	1