version 2
run ACBlue-0-20121208-17:55:58-2676
attr configname ACBlue
attr datetime 20121208-17:55:58
attr experiment ACBlue
attr inifile omnetpp.ini
attr iterationvars ""
attr iterationvars2 $repetition=0
attr measurement ""
attr network tirtproject.AdmissionControl.ACBlue
attr processid 2676
attr repetition 0
attr replication #0
attr resultdir results
attr runnumber 0
attr seedset 0

vector 0  ACBlue.AC  "Arrivals AC"  ETV
attr interpolationmode  none
vector 1  ACBlue.sink  arrivals  ETV
attr interpolationmode  none
0	7	1	1
0	11	1.64944634825	1
0	15	2	1
0	19	2.303328915471	1
0	21	2.714906911713	1
0	23	3	1
0	29	4.502394575151	1
0	31	5	1
0	39	8.347616444292	1
0	41	8.502346124792	1
0	43	9	1
0	49	11.396766602779	1
0	55	12	1
0	57	12.732056787402	1
0	59	12.894193276847	1
0	69	15	1
0	71	15.223106651061	1
0	73	15.327667876836	1
0	77	16	1
0	79	16.426580344386	1
0	83	17.432451349552	1
0	87	19	1
0	93	20.625397991605	1
0	97	21	1
0	101	21.684140706699	1
0	109	22.661004780769	1
0	111	22.777960190561	1
0	113	23	1
0	117	23.159516033935	1
0	123	24	1
0	127	24.245785414813	1
0	138	25	1
0	142	25.365599780566	1
0	144	25.5	1
0	148	25.811019242485	1
0	150	25.93740787891	1
0	152	26	1
0	154	26.5	1
0	162	27.5	1
0	164	28	1
0	168	28.061645075911	1
0	172	29	1
0	178	29.5	1
0	184	30	1
0	188	30.064885598418	1
0	192	30.5	1
0	196	30.922781239492	1
0	198	31	1
0	200	31.30634145359	1
0	204	31.5	1
0	210	32.348122107769	1
0	212	32.5	1
0	216	32.528374359753	1
0	222	33.5	1
0	228	33.857132233503	1
0	230	34	1
0	234	34.5	1
0	238	34.715525201331	1
0	244	35	1
0	246	35.5	1
0	248	35.734183931349	1
0	250	36	1
0	258	37.5	1
0	260	37.607643811206	1
0	264	37.869701052881	1
0	270	38.802103933287	1
0	272	39.161031149156	1
0	274	39.503630773854	1
0	282	40.88660998039	1
0	286	40.995157078884	1
0	288	41.5	1
0	290	41.888886157189	1
0	300	42.944735765848	1
0	302	43.194817260825	1
0	306	43.5	1
0	308	43.767278812253	1
0	310	44.361352310576	1
0	314	45.613959835487	1
0	318	47.5	1
0	324	51	1
0	328	51.5	1
0	332	52.379350355424	1
0	334	52.5	1
0	342	53.5	1
0	346	53.574788921706	1
0	348	54.021041742225	1
0	354	54.5	1
0	362	55.330340106247	1
0	364	55.386210159135	1
0	366	55.5	1
0	372	56	1
0	376	56.008807503113	1
0	380	56.945946220836	1
0	382	56.978303025481	1
0	384	57	1
0	390	57.158260367032	1
0	394	58	1
0	398	58.019184003712	1
0	406	58.971013711254	1
0	408	59	1
0	412	59.209766584101	1
0	414	59.456625852899	1
0	416	59.5	1
0	418	60	1
0	426	61	1
0	430	61.5	1
0	434	62	1
0	435	62	1
0	440	62.971104533435	1
0	442	63	1
0	448	64	1
0	452	64.108643038975	1
0	454	65	1
0	458	66	1
0	462	67	1
0	470	68	1
0	476	68.5	1
0	478	68.748295565348	1
0	480	69	1
0	488	69.133983259393	1
0	494	70	1
0	496	70.021485187876	1
0	498	70.021540539771	1
0	500	70.341115194643	1
0	502	70.5	1
0	508	71.5	1
0	512	71.940834636483	1
0	518	72.601337716232	1
0	520	73	1
0	524	73.5	1
0	526	74.15600065404	1
0	538	75.4669730222	1
0	540	75.5	1
0	542	75.673331015804	1
0	544	75.814973050599	1
0	548	76.31925298385	1
0	554	77.152631224495	1
0	556	77.332905524073	1
0	558	77.466246147345	1
0	566	79.5	1
0	570	80.28688209576	1
0	572	80.384049774127	1
0	576	80.629247866769	1
0	584	81.5	1
0	588	82.01256433292	1
0	590	82.350719047764	1
0	592	82.456406221868	1
0	594	83	1
0	600	84.5	1
0	602	85.108964737388	1
0	606	88.367885714572	1
0	612	90.478774488954	1
0	618	91.14461697559	1
0	620	91.5	1
0	622	92	1
0	632	93.21837843869	1
0	636	93.678169756465	1
0	638	93.825394793778	1
0	642	94.17899136904	1
0	644	94.281959732759	1
0	646	95.124096035596	1
0	652	96.611525789935	1
0	662	97.121516623784	1
0	666	97.644484277439	1
0	668	97.908754741574	1
0	670	97.963662114125	1
0	672	97.975155364333	1
0	676	98.5	1
0	680	99.447359522326	1
0	682	100.01325406396	1
0	692	101.408123155223	1
0	698	101.88460173782	1
0	700	102	1
0	704	102.199761766535	1
0	706	102.5	1
0	708	102.808826221858	1
0	710	103.008681759778	1
0	716	104.56242726181	1
0	718	104.620955160756	1
0	722	105.814968531351	1
0	734	107.323183762978	1
0	738	107.623508843263	1
0	740	107.695927953377	1
0	744	108.159317980916	1
0	746	108.204956030411	1
0	748	108.5	1
0	754	109	1
0	756	109.813373879496	1
0	758	109.968659465	1
0	766	111.016948569956	1
0	768	111.154901801885	1
0	770	111.313913818684	1
0	780	113.657153748776	1
0	782	114.267636593773	1
0	784	114.354253588219	1
0	786	114.5	1
0	792	115.642215563294	1
0	794	115.669657663724	1
0	802	116.984179761808	1
0	804	117.352762701418	1
0	806	117.617855802824	1
0	810	119	1
0	822	120.651798375221	1
0	824	121.160017829273	1
0	826	121.224783522062	1
0	830	121.52411190448	1
0	832	121.557983759722	1
0	834	122.5	1
0	838	124.751745632404	1
0	846	126.618386102584	1
0	848	127.386848679975	1
0	850	127.5	1
0	860	128.527127556894	1
0	864	128.922693157289	1
0	866	129	1
0	870	129.187628094926	1
0	878	129.747636468256	1
0	880	130.037909883379	1
0	884	130.287860700028	1
0	888	130.5	1
0	890	130.579806771756	1
0	894	131.255162641928	1
0	896	131.433039399784	1
0	900	131.808101342902	1
0	904	132.5	1
0	910	133.426762409321	1
0	912	133.5	1
0	918	134	1
0	922	134.5	1
0	924	134.57742500225	1
0	928	135.084148216149	1
0	932	135.680320107545	1
0	936	136.5	1
0	938	137.367538396302	1
0	942	138.5	1
0	948	139.720873164375	1
0	950	140.5	1
0	956	141.5	1
0	960	141.942087347574	1
0	962	142.5	1
0	970	143.5	1
0	976	144	1
0	980	144.076789742114	1
0	982	144.5	1
0	986	144.545667897741	1
0	990	145	1
0	992	145.5	1
0	996	145.685463304405	1
0	1000	146.5	1
0	1006	147	1
0	1008	147.5	1
0	1012	147.512989572221	1
0	1016	148.5	1
0	1020	149	1
0	1028	150	1
0	1029	150	1
0	1034	150.370414920037	1
0	1036	150.716848247531	1
0	1046	151.310178815791	1
0	1050	151.792754030951	1
0	1052	151.867945840114	1
0	1054	151.887435133065	1
0	1056	152	1
0	1058	152.78448814717	1
0	1062	154	1
0	1066	155	1
0	1072	156.503896458069	1
0	1074	157	1
0	1084	158.693543172627	1
0	1086	159	1
0	1087	159	1
0	1092	159.676071515349	1
0	1094	160	1
0	1100	162	1
0	1106	162.57118913237	1
0	1110	163.187782220893	1
0	1112	163.212615428639	1
0	1116	163.660703397014	1
0	1122	164.359284403093	1
0	1128	164.913552876506	1
0	1130	165	1
0	1136	165.5	1
0	1138	165.887025420151	1
0	1142	166	1
0	1146	166.122431286655	1
0	1148	166.983145994168	1
0	1150	167	1
0	1158	168.097756997167	1
0	1164	169	1
0	1165	169	1
0	1170	169.139601461987	1
0	1172	169.5	1
0	1176	170	1
0	1180	170.5	1
0	1184	171	1
0	1188	171.659490155833	1
0	1190	172	1
0	1196	173	1
0	1200	173.412938274109	1
0	1204	174.199621389568	1
0	1208	174.676619140512	1
0	1210	175.457787930499	1
0	1214	177	1
0	1222	178.025720559201	1
0	1224	178.138250505579	1
0	1228	178.518761454141	1
0	1232	179.346087377744	1
0	1236	179.520997637839	1
0	1242	180.432143445909	1
0	1244	181	1
0	1246	181.301758806746	1
0	1252	182.494011048828	1
0	1258	183	1
0	1262	183.5	1
0	1272	184	1
0	1273	184	1
0	1276	184.5	1
0	1280	184.601791407231	1
0	1282	184.964838561624	1
0	1284	184.967942918432	1
0	1286	185.5	1
0	1290	186.5	1
0	1296	187.5	1
0	1300	188	1
0	1304	188.856587641201	1
0	1306	189	1
0	1310	190	1
0	1322	191	1
0	1328	191.456260886546	1
0	1330	191.5	1
0	1334	191.915012189192	1
0	1338	192	1
0	1342	192.326712767064	1
0	1344	192.365001564836	1
0	1346	192.5	1
0	1348	192.959467581534	1
0	1352	193.269663704798	1
0	1354	194.099924351564	1
0	1358	195.5	1
0	1364	197.244921904267	1
0	1366	197.330542698377	1
0	1376	198.5	1
0	1380	198.779864567852	1
0	1382	199.081819571341	1
0	1384	199.279551339282	1
0	1386	199.5	1
0	1396	202.025803209506	1
0	1402	202.5	1
0	1406	202.504379780575	1
0	1408	202.513351167909	1
0	1412	203.202062011865	1
0	1414	203.38721806535	1
0	1416	203.5	1
0	1420	204	1
0	1424	204.5	1
0	1432	205.350341354906	1
0	1434	205.5	1
0	1438	205.666768746093	1
0	1440	205.798980345921	1
0	1444	206.5	1
0	1454	207.049929006579	1
0	1456	207.5	1
0	1458	207.5593575168	1
0	1460	208	1
0	1464	208.028965548928	1
0	1468	209	1
0	1472	209.143080285394	1
0	1476	210	1
0	1486	210.93473462128	1
0	1488	211	1
0	1492	211.264841315333	1
0	1494	211.295249309097	1
0	1496	211.5	1
0	1502	212	1
0	1506	212.5	1
0	1508	212.631817726419	1
0	1514	213	1
0	1518	213.727467596668	1
0	1520	214	1
0	1521	214	1
0	1528	215.928284471033	1
0	1530	216	1
0	1536	217.519486734375	1
0	1542	218	1
0	1548	218.992099596918	1
0	1550	219	1
0	1554	219.762730657718	1
0	1556	219.918549843828	1
0	1558	220.639602248247	1
0	1568	222	1
0	1569	222	1
0	1572	222.579464007837	1
0	1574	222.652476551679	1
0	1578	224	1
0	1588	225	1
0	1590	225.272678128559	1
0	1592	225.373183652292	1
0	1594	225.5	1
0	1600	226.5	1
0	1604	227.421921645865	1
0	1606	227.5	1
0	1612	229.5	1
0	1616	229.924079628404	1
0	1620	230.609199706341	1
0	1622	231.330858454032	1
0	1628	232.5	1
0	1634	233.240413472535	1
0	1636	233.5	1
0	1640	234.120931910844	1
0	1648	235	1
0	1654	235.280447876849	1
0	1656	235.5	1
0	1658	235.835479602163	1
0	1660	236	1
0	1664	236.120079786153	1
0	1666	237	1
0	1676	238	1
0	1678	238.077498178392	1
0	1682	238.5	1
0	1684	238.925764988231	1
0	1686	239.443794045349	1
0	1690	241.5	1
0	1705	243.092290358192	1
0	1709	243.336220028053	1
0	1711	243.5	1
0	1713	243.517799245713	1
0	1717	243.74792501387	1
0	1721	244.32384798674	1
0	1723	244.686539122946	1
0	1725	245.252162043968	1
0	1731	247.5	1
0	1733	247.990185339241	1
0	1743	250.671180428988	1
0	1745	250.959393596896	1
0	1751	251.619867491177	1
0	1753	251.660681991527	1
0	1757	252.134543570521	1
0	1761	252.5	1
0	1767	253.051317442207	1
0	1769	253.316812484854	1
0	1771	253.83269420738	1
0	1773	254	1
0	1785	255.200099926382	1
0	1787	255.266705063622	1
0	1789	255.50021876966	1
0	1791	255.742797728535	1
0	1793	256.16155708079	1
0	1797	257.460756413222	1
0	1807	259	1
0	1809	259.388060910474	1
0	1815	259.734627919603	1
0	1819	259.848032641795	1
0	1821	260.5	1
0	1823	260.637509236633	1
0	1827	260.788699663076	1
0	1831	261.760167616644	1
0	1837	262.175124199368	1
0	1841	262.823194559051	1
0	1843	263.120141617832	1
0	1845	263.797203330187	1
0	1853	265.031283356926	1
0	1855	265.916500201577	1
0	1857	266	1
0	1863	267.508082314655	1
0	1865	267.979678035105	1
0	1869	271.296745412815	1
0	1873	273.4054128947	1
0	1879	276	1
0	1881	276.5	1
0	1885	279.371648594453	1
0	1895	281.459338857585	1
0	1897	281.587308802451	1
0	1901	281.767019861694	1
0	1903	281.858458509735	1
0	1907	282.721707053999	1
0	1911	283.087541893137	1
0	1915	283.940932579356	1
0	1919	284.749816267973	1
0	1921	285	1
0	1927	286.065218760531	1
0	1931	286.470291989713	1
0	1933	287.115771760738	1
0	1941	288.830694864838	1
0	1945	289.184783664934	1
0	1947	289.348403078445	1
0	1949	290.067699850719	1
0	1955	292.058956342056	1
0	1957	292.130293348471	1
0	1961	293.353483089021	1
0	1971	294.5	1
0	1973	294.621555012875	1
0	1977	294.870149537147	1
0	1981	295	1
0	1983	295.845378579581	1
0	1985	295.917070797634	1
0	1991	298.030469081917	1
0	1993	298.224660060697	1
0	1999	301.024182829161	1
0	2003	301.730034824271	1
0	2005	302.359492725602	1
0	2009	304.906943976493	1
0	2017	306	1
0	2019	306.194086082303	1
0	2021	306.257020564165	1
0	2027	307.446188638671	1
0	2029	308.169634638736	1
0	2033	310.956923271421	1
0	2037	313.239273836406	1
0	2043	315.768405276373	1
0	2045	316.224497042099	1
0	2051	318.5	1
0	2055	318.895821712515	1
0	2057	319.505922014718	1
0	2063	320.705097710776	1
0	2065	321	1
0	2069	326.932529878754	1
0	2073	329.607289272613	1
0	2081	330.718262618975	1
0	2085	330.982727180891	1
0	2087	331.120492224433	1
0	2089	331.758123943687	1
0	2095	334	1
0	2101	334.63786772502	1
0	2105	335.240681629397	1
0	2113	335.59762726568	1
0	2115	335.820182902659	1
0	2121	336.498702451141	1
0	2123	336.5	1
0	2125	336.567203132923	1
0	2127	337.223777775406	1
0	2131	337.484202844894	1
0	2135	338.231621520416	1
0	2137	339.030250350852	1
0	2143	340.815464468437	1
0	2145	340.878168040689	1
0	2149	343.23022392576	1
0	2155	344.254398704761	1
0	2157	345	1
0	2163	347.095999660605	1
0	2165	347.403407810765	1
0	2175	348.423567872123	1
0	2177	348.5	1
0	2179	348.637808793929	1
0	2181	348.809646148716	1
0	2187	350.355452357629	1
0	2189	351	1
0	2193	352.518465556684	1
0	2205	355.631868237153	1
0	2207	355.757227099809	1
0	2211	356	1
0	2213	356.066860325579	1
0	2215	356.30091737187	1
0	2219	356.771481848078	1
0	2221	357.353757179229	1
0	2229	361.177482752898	1
0	2231	361.408234589874	1
0	2233	361.775209467756	1
0	2241	365.5	1
0	2243	365.959859778225	1
0	2245	366.181643427557	1
0	2249	369.308012071604	1
0	2257	371.550186728712	1
0	2259	372	1
0	2261	372.405998048966	1
0	2267	375.273204121673	1
0	2275	375.959471279193	1
0	2277	376.355336701727	1
0	2279	376.537205843809	1
0	2281	376.812288157567	1
0	2285	378.049130420649	1
0	2293	379.517215333481	1
0	2295	379.779322302014	1
0	2299	380.092266155717	1
0	2303	381	1
0	2309	381.702982874484	1
0	2311	382.258112919673	1
0	2315	382.367457433209	1
0	2319	383.260484322779	1
0	2321	383.5	1
0	2325	384.863389860238	1
0	2329	386.752022816672	1
0	2333	387.800515034182	1
0	2341	390.431273200337	1
0	2343	390.821897201628	1
0	2345	391	1
0	2349	393.246094955689	1
0	2355	394.349372793833	1
0	2359	395	1
0	2361	395.851652201708	1
0	2365	397.819986641883	1
0	2373	399.508603265296	1
0	2375	399.995938736157	1
0	2377	400.028022556687	1
0	2387	401.67601319275	1
0	2389	401.784032738767	1
0	2391	401.846857770763	1
0	2393	402	1
0	2397	404.861892276047	1
0	2403	407.64665289484	1
0	2405	408	1
0	2415	409.739369416165	1
0	2417	410.181974290309	1
0	2419	410.5	1
0	2421	410.673273605579	1
0	2429	413.638342969635	1
0	2431	414	1
0	2433	414.284612589519	1
0	2437	417.386743163694	1
0	2441	421.263703767166	1
0	2449	422.281499054051	1
0	2455	422.843612315955	1
0	2457	422.88000940584	1
0	2459	423.577376646144	1
0	2461	423.773305990082	1
0	2471	425.351087154246	1
0	2473	425.708692762781	1
0	2475	425.966371587141	1
0	2479	426.276907234812	1
0	2481	427	1
0	2491	428.55049175942	1
0	2493	428.981870268283	1
0	2495	429.36801269372	1
0	2497	429.393093663282	1
0	2501	431.127935744737	1
0	2505	433.666997854896	1
0	2515	434.833234803253	1
0	2517	435	1
0	2521	435.404790156721	1
0	2523	435.5	1
0	2525	436.201604322698	1
0	2529	438.21252559479	1
0	2539	439.269557498941	1
0	2541	439.315152441511	1
0	2543	439.679063070675	1
0	2545	440.190636527847	1
0	2551	441.286865850114	1
0	2555	442.033237962195	1
0	2557	442.331723807704	1
0	2561	443.546383581619	1
0	2569	446.527816660345	1
0	2573	447	1
0	2575	447.255806617186	1
0	2577	447.606630107254	1
0	2583	449.268952494311	1
0	2593	450.187580171791	1
0	2595	450.290343675298	1
0	2597	450.415330640362	1
0	2599	450.526678498348	1
0	2603	450.865166559245	1
0	2605	451.659806820949	1
0	2611	453.00546800845	1
0	2613	454	1
0	2621	456.149017592011	1
0	2623	456.162749186992	1
0	2627	456.817486416711	1
0	2629	457.5	1
0	2637	459.30823368614	1
0	2639	459.372378478649	1
0	2641	459.75514608832	1
0	2645	461.19851346366	1
0	2651	465.423780365175	1
0	2653	465.834882923608	1
0	2657	467.727588232445	1
0	2667	469	1
0	2673	469.308952278795	1
0	2675	469.439909635687	1
0	2677	469.750082993785	1
0	2679	470.050648005891	1
0	2681	470.192563799565	1
0	2689	473.059077396875	1
0	2691	473.105047815934	1
0	2693	473.485636612318	1
0	2699	474.874079883299	1
0	2705	475.637602150208	1
0	2707	476.142793867803	1
0	2709	476.255607025894	1
0	2717	477.326509826867	1
0	2721	477.5	1
0	2723	478	1
0	2727	478.396662006505	1
0	2731	479.1147374475	1
0	2735	480.050071762795	1
0	2737	480.822144806779	1
0	2747	483.597346442229	1
0	2749	483.96146142779	1
0	2751	484.180421596182	1
0	2753	484.189365472315	1
0	2757	486.408541800583	1
0	2765	487.541419393873	1
0	2767	487.926837613567	1
0	2769	488	1
0	2775	489.309032478905	1
0	2781	489.807851367927	1
0	2783	490.530977681575	1
0	2785	490.682311769153	1
0	2793	492.457074606661	1
0	2795	492.801522912684	1
0	2797	492.840310183987	1
0	2801	495.976318882139	1
0	2811	496.986557141545	1
0	2813	497	1
0	2815	497.645549834642	1
0	2817	497.779889892383	1
0	2823	500.5	1
0	2827	501.395362885354	1
0	2833	502.289397633884	1
0	2835	502.822274829848	1
0	2837	502.954430813979	1
0	2841	504.918578100326	1
0	2845	506.176029757996	1
0	2853	507.650048574424	1
0	2855	507.745591255574	1
0	2859	508.441667179774	1
0	2861	508.761928321606	1
0	2865	511.294525352656	1
1	8	1	1
1	12	1.64944634825	1
1	18	2	1
1	20	2.303328915471	1
1	22	2.714906911713	1
1	24	3	1
1	30	4.502394575151	1
1	32	5	1
1	40	8.347616444292	1
1	42	8.502346124792	1
1	44	9	1
1	50	11.396766602779	1
1	56	12	1
1	58	12.732056787402	1
1	60	12.894193276847	1
1	70	15	1
1	72	15.223106651061	1
1	74	15.327667876836	1
1	78	16	1
1	80	16.426580344386	1
1	84	17.432451349552	1
1	88	19	1
1	94	20.625397991605	1
1	98	21	1
1	102	21.684140706699	1
1	110	22.661004780769	1
1	112	22.777960190561	1
1	116	23	1
1	118	23.159516033935	1
1	126	24	1
1	128	24.245785414813	1
1	141	25	1
1	143	25.365599780566	1
1	147	25.5	1
1	149	25.811019242485	1
1	151	25.93740787891	1
1	153	26	1
1	157	26.5	1
1	163	27.5	1
1	167	28	1
1	169	28.061645075911	1
1	175	29	1
1	181	29.5	1
1	187	30	1
1	189	30.064885598418	1
1	195	30.5	1
1	197	30.922781239492	1
1	199	31	1
1	201	31.30634145359	1
1	207	31.5	1
1	211	32.348122107769	1
1	215	32.5	1
1	217	32.528374359753	1
1	225	33.5	1
1	229	33.857132233503	1
1	233	34	1
1	237	34.5	1
1	239	34.715525201331	1
1	245	35	1
1	247	35.5	1
1	249	35.734183931349	1
1	251	36	1
1	259	37.5	1
1	261	37.607643811206	1
1	265	37.869701052881	1
1	271	38.802103933287	1
1	273	39.161031149156	1
1	275	39.503630773854	1
1	283	40.88660998039	1
1	287	40.995157078884	1
1	289	41.5	1
1	291	41.888886157189	1
1	301	42.944735765848	1
1	303	43.194817260825	1
1	307	43.5	1
1	309	43.767278812253	1
1	311	44.361352310576	1
1	315	45.613959835487	1
1	319	47.5	1
1	325	51	1
1	331	51.5	1
1	333	52.379350355424	1
1	337	52.5	1
1	345	53.5	1
1	347	53.574788921706	1
1	349	54.021041742225	1
1	357	54.5	1
1	363	55.330340106247	1
1	365	55.386210159135	1
1	367	55.5	1
1	375	56	1
1	377	56.008807503113	1
1	381	56.945946220836	1
1	383	56.978303025481	1
1	387	57	1
1	391	57.158260367032	1
1	397	58	1
1	399	58.019184003712	1
1	407	58.971013711254	1
1	411	59	1
1	413	59.209766584101	1
1	415	59.456625852899	1
1	417	59.5	1
1	421	60	1
1	429	61	1
1	431	61.5	1
1	438	62	1
1	439	62	1
1	441	62.971104533435	1
1	445	63	1
1	451	64	1
1	453	64.108643038975	1
1	457	65	1
1	461	66	1
1	465	67	1
1	473	68	1
1	477	68.5	1
1	479	68.748295565348	1
1	483	69	1
1	489	69.133983259393	1
1	495	70	1
1	497	70.021485187876	1
1	499	70.021540539771	1
1	501	70.341115194643	1
1	505	70.5	1
1	509	71.5	1
1	513	71.940834636483	1
1	519	72.601337716232	1
1	521	73	1
1	525	73.5	1
1	527	74.15600065404	1
1	539	75.4669730222	1
1	541	75.5	1
1	543	75.673331015804	1
1	545	75.814973050599	1
1	549	76.31925298385	1
1	555	77.152631224495	1
1	557	77.332905524073	1
1	559	77.466246147345	1
1	567	79.5	1
1	571	80.28688209576	1
1	573	80.384049774127	1
1	577	80.629247866769	1
1	585	81.5	1
1	589	82.01256433292	1
1	591	82.350719047764	1
1	593	82.456406221868	1
1	595	83	1
1	601	84.5	1
1	603	85.108964737388	1
1	607	88.367885714572	1
1	613	90.478774488954	1
1	619	91.14461697559	1
1	621	91.5	1
1	623	92	1
1	633	93.21837843869	1
1	637	93.678169756465	1
1	639	93.825394793778	1
1	643	94.17899136904	1
1	645	94.281959732759	1
1	647	95.124096035596	1
1	653	96.611525789935	1
1	663	97.121516623784	1
1	667	97.644484277439	1
1	669	97.908754741574	1
1	671	97.963662114125	1
1	673	97.975155364333	1
1	677	98.5	1
1	681	99.447359522326	1
1	683	100.01325406396	1
1	693	101.408123155223	1
1	699	101.88460173782	1
1	701	102	1
1	705	102.199761766535	1
1	707	102.5	1
1	709	102.808826221858	1
1	711	103.008681759778	1
1	717	104.56242726181	1
1	719	104.620955160756	1
1	723	105.814968531351	1
1	735	107.323183762978	1
1	739	107.623508843263	1
1	741	107.695927953377	1
1	745	108.159317980916	1
1	747	108.204956030411	1
1	749	108.5	1
1	755	109	1
1	757	109.813373879496	1
1	759	109.968659465	1
1	767	111.016948569956	1
1	769	111.154901801885	1
1	771	111.313913818684	1
1	781	113.657153748776	1
1	783	114.267636593773	1
1	785	114.354253588219	1
1	787	114.5	1
1	793	115.642215563294	1
1	795	115.669657663724	1
1	803	116.984179761808	1
1	805	117.352762701418	1
1	807	117.617855802824	1
1	811	119	1
1	823	120.651798375221	1
1	825	121.160017829273	1
1	827	121.224783522062	1
1	831	121.52411190448	1
1	833	121.557983759722	1
1	835	122.5	1
1	839	124.751745632404	1
1	847	126.618386102584	1
1	849	127.386848679975	1
1	851	127.5	1
1	861	128.527127556894	1
1	865	128.922693157289	1
1	867	129	1
1	871	129.187628094926	1
1	879	129.747636468256	1
1	881	130.037909883379	1
1	885	130.287860700028	1
1	889	130.5	1
1	891	130.579806771756	1
1	895	131.255162641928	1
1	897	131.433039399784	1
1	901	131.808101342902	1
1	907	132.5	1
1	911	133.426762409321	1
1	915	133.5	1
1	919	134	1
1	923	134.5	1
1	925	134.57742500225	1
1	929	135.084148216149	1
1	933	135.680320107545	1
1	937	136.5	1
1	939	137.367538396302	1
1	943	138.5	1
1	949	139.720873164375	1
1	953	140.5	1
1	959	141.5	1
1	961	141.942087347574	1
1	965	142.5	1
1	973	143.5	1
1	979	144	1
1	981	144.076789742114	1
1	985	144.5	1
1	987	144.545667897741	1
1	991	145	1
1	995	145.5	1
1	997	145.685463304405	1
1	1003	146.5	1
1	1007	147	1
1	1011	147.5	1
1	1013	147.512989572221	1
1	1017	148.5	1
1	1023	149	1
1	1030	150	1
1	1031	150	1
1	1035	150.370414920037	1
1	1037	150.716848247531	1
1	1047	151.310178815791	1
1	1051	151.792754030951	1
1	1053	151.867945840114	1
1	1055	151.887435133065	1
1	1057	152	1
1	1059	152.78448814717	1
1	1065	154	1
1	1067	155	1
1	1073	156.503896458069	1
1	1075	157	1
1	1085	158.693543172627	1
1	1090	159	1
1	1091	159	1
1	1093	159.676071515349	1
1	1095	160	1
1	1101	162	1
1	1107	162.57118913237	1
1	1111	163.187782220893	1
1	1113	163.212615428639	1
1	1117	163.660703397014	1
1	1123	164.359284403093	1
1	1129	164.913552876506	1
1	1133	165	1
1	1137	165.5	1
1	1139	165.887025420151	1
1	1145	166	1
1	1147	166.122431286655	1
1	1149	166.983145994168	1
1	1151	167	1
1	1159	168.097756997167	1
1	1168	169	1
1	1169	169	1
1	1171	169.139601461987	1
1	1175	169.5	1
1	1179	170	1
1	1181	170.5	1
1	1187	171	1
1	1189	171.659490155833	1
1	1193	172	1
1	1197	173	1
1	1201	173.412938274109	1
1	1205	174.199621389568	1
1	1209	174.676619140512	1
1	1211	175.457787930499	1
1	1215	177	1
1	1223	178.025720559201	1
1	1225	178.138250505579	1
1	1229	178.518761454141	1
1	1233	179.346087377744	1
1	1237	179.520997637839	1
1	1243	180.432143445909	1
1	1245	181	1
1	1247	181.301758806746	1
1	1253	182.494011048828	1
1	1261	183	1
1	1265	183.5	1
1	1274	184	1
1	1275	184	1
1	1279	184.5	1
1	1281	184.601791407231	1
1	1283	184.964838561624	1
1	1285	184.967942918432	1
1	1289	185.5	1
1	1293	186.5	1
1	1297	187.5	1
1	1303	188	1
1	1305	188.856587641201	1
1	1309	189	1
1	1313	190	1
1	1323	191	1
1	1329	191.456260886546	1
1	1333	191.5	1
1	1335	191.915012189192	1
1	1339	192	1
1	1343	192.326712767064	1
1	1345	192.365001564836	1
1	1347	192.5	1
1	1349	192.959467581534	1
1	1353	193.269663704798	1
1	1355	194.099924351564	1
1	1359	195.5	1
1	1365	197.244921904267	1
1	1367	197.330542698377	1
1	1379	198.5	1
1	1381	198.779864567852	1
1	1383	199.081819571341	1
1	1385	199.279551339282	1
1	1387	199.5	1
1	1397	202.025803209506	1
1	1405	202.5	1
1	1407	202.504379780575	1
1	1409	202.513351167909	1
1	1413	203.202062011865	1
1	1415	203.38721806535	1
1	1419	203.5	1
1	1421	204	1
1	1427	204.5	1
1	1433	205.350341354906	1
1	1437	205.5	1
1	1439	205.666768746093	1
1	1441	205.798980345921	1
1	1447	206.5	1
1	1455	207.049929006579	1
1	1457	207.5	1
1	1459	207.5593575168	1
1	1463	208	1
1	1465	208.028965548928	1
1	1471	209	1
1	1473	209.143080285394	1
1	1479	210	1
1	1487	210.93473462128	1
1	1491	211	1
1	1493	211.264841315333	1
1	1495	211.295249309097	1
1	1499	211.5	1
1	1505	212	1
1	1507	212.5	1
1	1509	212.631817726419	1
1	1517	213	1
1	1519	213.727467596668	1
1	1522	214	1
1	1523	214	1
1	1529	215.928284471033	1
1	1531	216	1
1	1537	217.519486734375	1
1	1543	218	1
1	1549	218.992099596918	1
1	1551	219	1
1	1555	219.762730657718	1
1	1557	219.918549843828	1
1	1559	220.639602248247	1
1	1570	222	1
1	1571	222	1
1	1573	222.579464007837	1
1	1575	222.652476551679	1
1	1581	224	1
1	1589	225	1
1	1591	225.272678128559	1
1	1593	225.373183652292	1
1	1597	225.5	1
1	1603	226.5	1
1	1605	227.421921645865	1
1	1607	227.5	1
1	1613	229.5	1
1	1617	229.924079628404	1
1	1621	230.609199706341	1
1	1623	231.330858454032	1
1	1631	232.5	1
1	1635	233.240413472535	1
1	1637	233.5	1
1	1641	234.120931910844	1
1	1651	235	1
1	1655	235.280447876849	1
1	1657	235.5	1
1	1659	235.835479602163	1
1	1663	236	1
1	1665	236.120079786153	1
1	1669	237	1
1	1677	238	1
1	1679	238.077498178392	1
1	1683	238.5	1
1	1685	238.925764988231	1
1	1687	239.443794045349	1
1	1691	241.5	1
1	1706	243.092290358192	1
1	1710	243.336220028053	1
1	1712	243.5	1
1	1714	243.517799245713	1
1	1718	243.74792501387	1
1	1722	244.32384798674	1
1	1724	244.686539122946	1
1	1726	245.252162043968	1
1	1732	247.5	1
1	1734	247.990185339241	1
1	1744	250.671180428988	1
1	1746	250.959393596896	1
1	1752	251.619867491177	1
1	1754	251.660681991527	1
1	1758	252.134543570521	1
1	1762	252.5	1
1	1768	253.051317442207	1
1	1770	253.316812484854	1
1	1772	253.83269420738	1
1	1774	254	1
1	1786	255.200099926382	1
1	1788	255.266705063622	1
1	1790	255.50021876966	1
1	1792	255.742797728535	1
1	1794	256.16155708079	1
1	1798	257.460756413222	1
1	1808	259	1
1	1810	259.388060910474	1
1	1816	259.734627919603	1
1	1820	259.848032641795	1
1	1822	260.5	1
1	1824	260.637509236633	1
1	1828	260.788699663076	1
1	1832	261.760167616644	1
1	1838	262.175124199368	1
1	1842	262.823194559051	1
1	1844	263.120141617832	1
1	1846	263.797203330187	1
1	1854	265.031283356926	1
1	1856	265.916500201577	1
1	1858	266	1
1	1864	267.508082314655	1
1	1866	267.979678035105	1
1	1870	271.296745412815	1
1	1874	273.4054128947	1
1	1880	276	1
1	1882	276.5	1
1	1886	279.371648594453	1
1	1896	281.459338857585	1
1	1898	281.587308802451	1
1	1902	281.767019861694	1
1	1904	281.858458509735	1
1	1908	282.721707053999	1
1	1912	283.087541893137	1
1	1916	283.940932579356	1
1	1920	284.749816267973	1
1	1922	285	1
1	1928	286.065218760531	1
1	1932	286.470291989713	1
1	1934	287.115771760738	1
1	1942	288.830694864838	1
1	1946	289.184783664934	1
1	1948	289.348403078445	1
1	1950	290.067699850719	1
1	1956	292.058956342056	1
1	1958	292.130293348471	1
1	1962	293.353483089021	1
1	1972	294.5	1
1	1974	294.621555012875	1
1	1978	294.870149537147	1
1	1982	295	1
1	1984	295.845378579581	1
1	1986	295.917070797634	1
1	1992	298.030469081917	1
1	1994	298.224660060697	1
1	2000	301.024182829161	1
1	2004	301.730034824271	1
1	2006	302.359492725602	1
1	2010	304.906943976493	1
1	2018	306	1
1	2020	306.194086082303	1
1	2022	306.257020564165	1
1	2028	307.446188638671	1
1	2030	308.169634638736	1
1	2034	310.956923271421	1
1	2038	313.239273836406	1
1	2044	315.768405276373	1
1	2046	316.224497042099	1
1	2052	318.5	1
1	2056	318.895821712515	1
1	2058	319.505922014718	1
1	2064	320.705097710776	1
1	2066	321	1
1	2070	326.932529878754	1
1	2074	329.607289272613	1
1	2082	330.718262618975	1
1	2086	330.982727180891	1
1	2088	331.120492224433	1
1	2090	331.758123943687	1
1	2096	334	1
1	2102	334.63786772502	1
1	2106	335.240681629397	1
1	2114	335.59762726568	1
1	2116	335.820182902659	1
1	2122	336.498702451141	1
1	2124	336.5	1
1	2126	336.567203132923	1
1	2128	337.223777775406	1
1	2132	337.484202844894	1
1	2136	338.231621520416	1
1	2138	339.030250350852	1
1	2144	340.815464468437	1
1	2146	340.878168040689	1
1	2150	343.23022392576	1
1	2156	344.254398704761	1
1	2158	345	1
1	2164	347.095999660605	1
1	2166	347.403407810765	1
1	2176	348.423567872123	1
1	2178	348.5	1
1	2180	348.637808793929	1
1	2182	348.809646148716	1
1	2188	350.355452357629	1
1	2190	351	1
1	2194	352.518465556684	1
1	2206	355.631868237153	1
1	2208	355.757227099809	1
1	2212	356	1
1	2214	356.066860325579	1
1	2216	356.30091737187	1
1	2220	356.771481848078	1
1	2222	357.353757179229	1
1	2230	361.177482752898	1
1	2232	361.408234589874	1
1	2234	361.775209467756	1
1	2242	365.5	1
1	2244	365.959859778225	1
1	2246	366.181643427557	1
1	2250	369.308012071604	1
1	2258	371.550186728712	1
1	2260	372	1
1	2262	372.405998048966	1
1	2268	375.273204121673	1
1	2276	375.959471279193	1
1	2278	376.355336701727	1
1	2280	376.537205843809	1
1	2282	376.812288157567	1
1	2286	378.049130420649	1
1	2294	379.517215333481	1
1	2296	379.779322302014	1
1	2300	380.092266155717	1
1	2304	381	1
1	2310	381.702982874484	1
1	2312	382.258112919673	1
1	2316	382.367457433209	1
1	2320	383.260484322779	1
1	2322	383.5	1
1	2326	384.863389860238	1
1	2330	386.752022816672	1
1	2334	387.800515034182	1
1	2342	390.431273200337	1
1	2344	390.821897201628	1
1	2346	391	1
1	2350	393.246094955689	1
1	2356	394.349372793833	1
1	2360	395	1
1	2362	395.851652201708	1
1	2366	397.819986641883	1
1	2374	399.508603265296	1
1	2376	399.995938736157	1
1	2378	400.028022556687	1
1	2388	401.67601319275	1
1	2390	401.784032738767	1
1	2392	401.846857770763	1
1	2394	402	1
1	2398	404.861892276047	1
1	2404	407.64665289484	1
1	2406	408	1
1	2416	409.739369416165	1
1	2418	410.181974290309	1
1	2420	410.5	1
1	2422	410.673273605579	1
1	2430	413.638342969635	1
1	2432	414	1
1	2434	414.284612589519	1