version 2
run ACBlue-0-20130107-19:48:56-4056
attr configname ACBlue
attr datetime 20130107-19:48:56
attr experiment ACBlue
attr inifile omnetpp.ini
attr iterationvars ""
attr iterationvars2 $repetition=0
attr measurement ""
attr network tirtproject.AdmissionControl.ACBlue
attr processid 4056
attr repetition 0
attr replication #0
attr resultdir results
attr runnumber 0
attr seedset 0

vector 0  ACBlue.OnOff  "Changes vector"  ETV
attr interpolationmode  none
vector 2  ACBlue.AC  "Propability vector"  ETV
attr interpolationmode  none
vector 1  ACBlue.AC  "Arrivals AC"  ETV
attr interpolationmode  none
vector 3  ACBlue.sink  arrivals  ETV
attr interpolationmode  none
0	1	0	1
0	3	0.64944634825	1
0	3	0.64944634825	0
0	8	1.402120461562	0
0	8	1.402120461562	1
0	26	4.00037454741	1
0	35	5.787862210848	1
0	35	5.787862210848	0
0	40	7.828754426759	0
0	43	8.964693368469	0
0	44	10.239921070692	0
0	45	11.112242265734	0
0	46	11.883076924201	0
0	49	12.620904215956	0
0	49	12.620904215956	1
0	55	13.956194400579	1
0	57	14.200242891315	1
0	57	14.200242891315	0
0	58	14.345520918607	0
0	59	14.737291729283	0
0	59	14.737291729283	1
0	61	14.899428218728	1
0	61	14.899428218728	0
0	68	15.150870150802	0
0	69	15.594274179422	0
0	69	15.594274179422	1
0	79	16.983316869213	1
0	79	16.983316869213	0
0	80	17.919378428984	0
0	80	17.919378428984	1
0	82	18.312490986288	1
0	82	18.312490986288	0
0	83	18.889815297094	0
0	83	18.889815297094	1
0	97	23.34431214327	1
0	99	23.972253724261	1
0	99	23.972253724261	0
0	100	24.252530732739	0
0	100	24.252530732739	1
0	104	24.425658188885	1
0	106	24.542613598677	1
0	108	24.924169442051	1
0	108	24.924169442051	0
0	117	26.430804775323	0
0	122	27.405906709479	0
0	123	27.988785098345	0
0	126	28.116841863656	0
0	127	28.772488148019	0
0	128	29.939361674567	0
0	128	29.939361674567	1
0	136	32.063598871568	1
0	138	32.896442387634	1
0	146	34.899682910141	1
0	150	35.757578551215	1
0	150	35.757578551215	0
0	155	38.406834479891	0
0	162	40.254162130892	0
0	163	40.412503637122	0
0	164	40.727225297976	0
0	164	40.727225297976	1
0	173	42.055983171726	1
0	173	42.055983171726	0
0	176	43.46700758102	0
0	177	43.971351387607	0
0	177	43.971351387607	1
0	187	46.235084963467	1
0	187	46.235084963467	0
0	194	50.07809154671	0
0	195	50.58040234497	0
0	200	51.544855910463	0
0	200	51.544855910463	1
0	202	51.903783126332	1
0	202	51.903783126332	0
0	205	52.983103324987	0
0	205	52.983103324987	1
0	207	53.325702949685	1
0	207	53.325702949685	0
0	210	54.288078005456	0
0	211	54.848039075529	0
0	212	54.993613053976	0
0	212	54.993613053976	1
0	214	55.347837186221	1
0	214	55.347837186221	0
0	219	56.191725658811	0
0	222	59.664261138093	0
0	225	60.228871639213	0
0	225	60.228871639213	1
0	227	60.801333190641	1
0	227	60.801333190641	0
0	234	63.026247847866	0
0	235	63.131129683466	0
0	235	63.131129683466	1
0	242	64.383737208377	1
0	242	64.383737208377	0
0	245	65.893560663986	0
0	245	65.893560663986	1
0	251	67.895547159511	1
0	251	67.895547159511	0
0	252	67.967222543823	0
0	252	67.967222543823	1
0	258	69.162661110105	1
0	258	69.162661110105	0
0	259	69.766960181952	0
0	262	71.047294385764	0
0	263	71.064062151756	0
0	264	71.326391460922	0
0	267	72.77418554291	0
0	278	75.658797295012	0
0	278	75.658797295012	1
0	286	77.734828355454	1
0	288	77.767185160099	1
0	290	77.94714250165	1
0	290	77.94714250165	0
0	296	78.918624659744	0
0	296	78.918624659744	1
0	298	79.779548296424	1
0	298	79.779548296424	0
0	309	84.658681184417	0
0	309	84.658681184417	1
0	319	88.173159864953	1
0	319	88.173159864953	0
0	320	88.842273588642	0
0	320	88.842273588642	1
0	330	90.970943683173	1
0	334	91.168911418506	1
0	334	91.168911418506	0
0	335	91.238529089579	0
0	335	91.238529089579	1
0	345	92.376067595119	1
0	351	93.145187396215	1
0	351	93.145187396215	0
0	354	93.754020309952	0
0	354	93.754020309952	1
0	362	96.122938480788	1
0	364	96.606576868277	1
0	371	97.49407879676	1
0	371	97.49407879676	0
0	374	97.867842090576	0
0	374	97.867842090576	1
0	378	98.422012919624	1
0	378	98.422012919624	0
0	381	100.587776600498	0
0	381	100.587776600498	1
0	387	101.72683425117	1
0	387	101.72683425117	0
0	394	103.849580905111	0
0	395	104.402419275762	0
0	395	104.402419275762	1
0	397	104.871095751738	1
0	397	104.871095751738	0
0	400	105.493925061502	0
0	401	105.819141079478	0
0	401	105.819141079478	1
0	403	106.70292673551	1
0	403	106.70292673551	0
0	408	108.696965936786	0
0	411	109.915965281967	0
0	411	109.915965281967	1
0	415	110.538002201048	1
0	415	110.538002201048	0
0	420	111.818426555026	0
0	421	113.192769569446	0
0	421	113.192769569446	1
0	423	113.289937247813	1
0	425	113.535135340455	1
0	434	114.918451806606	1
0	438	115.25660652145	1
0	440	115.362293695554	1
0	440	115.362293695554	0
0	441	115.378859789975	0
0	441	115.378859789975	1
0	453	118.031418305495	1
0	455	118.696226055046	1
0	464	122.490249838133	1
0	464	122.490249838133	0
0	465	125.326890031508	0
0	470	126.932348794575	0
0	475	127.246346692638	0
0	476	127.774813920939	0
0	477	129.501447300681	0
0	478	129.711980588885	0
0	479	129.840560826161	0
0	480	133.78819409372	0
0	481	134.309272914804	0
0	481	134.309272914804	1
0	483	135.151409217641	1
0	483	135.151409217641	0
0	494	138.391372184541	0
0	494	138.391372184541	1
0	496	139.153795868755	1
0	496	139.153795868755	0
0	499	139.517038087656	0
0	500	141.661423552169	0
0	500	141.661423552169	1
0	502	141.949936262517	1
0	502	141.949936262517	0
0	507	143.064823684424	0
0	507	143.064823684424	1
0	509	143.961152889444	1
0	514	144.608327593487	1
0	516	144.912299152715	1
0	520	145.521363608038	1
0	520	145.521363608038	0
0	525	146.671104995787	0
0	525	146.671104995787	1
0	533	148.585947253429	1
0	537	149.779960624024	1
0	541	151.288175855651	1
0	541	151.288175855651	0
0	542	152.790588649361	0
0	542	152.790588649361	1
0	544	153.090913729646	1
0	544	153.090913729646	0
0	545	153.55902018288	0
0	545	153.55902018288	1
0	549	154.444780828909	1
0	549	154.444780828909	0
0	552	154.763364676788	0
0	552	154.763364676788	1
0	558	155.226754704327	1
0	562	155.789579906144	1
0	562	155.789579906144	0
0	568	156.502964188944	0
0	569	157.271217530811	0
0	569	157.271217530811	1
0	573	158.415012909929	1
0	573	158.415012909929	0
0	574	158.740183780417	0
0	574	158.740183780417	1
0	576	158.878137012346	1
0	576	158.878137012346	0
0	577	159.376829345216	0
0	577	159.376829345216	1
0	583	162.509658834762	1
0	583	162.509658834762	0
0	584	162.716844017013	0
0	584	162.716844017013	1
0	592	165.060083947105	1
0	592	165.060083947105	0
0	593	165.615742860263	0
0	593	165.615742860263	1
0	597	166.256716405526	1
0	600	166.625299345136	1
0	602	166.890392446542	1
0	602	166.890392446542	0
0	606	167.590418082657	0
0	609	169.540394994503	0
0	610	170.151452555788	0
0	610	170.151452555788	1
0	614	173.185395128185	1
0	616	174.042830230798	1
0	622	175.761899542586	1
0	622	175.761899542586	0
0	631	178.157079331975	0
0	632	178.654288618317	0
0	632	178.654288618317	1
0	634	179.413253392565	1
0	640	181.279893862745	1
0	642	182.048356440136	1
0	648	183.188635317055	1
0	648	183.188635317055	0
0	649	184.128137302918	0
0	650	184.23180813956	0
0	651	184.8372419212	0
0	651	184.8372419212	1
0	655	185.232807521595	1
0	659	185.952452419283	1
0	664	186.242725834406	1
0	666	186.492676651055	1
0	668	186.784622722783	1
0	668	186.784622722783	0
0	669	186.925098439738	0
0	670	186.937207684799	0
0	673	187.059922692115	0
0	682	190.719484810576	0
0	687	192.248423681287	0
0	687	192.248423681287	1
0	689	192.800225802925	1
0	693	193.358552592189	1
0	699	195.087672229871	1
0	701	195.62357102521	1
0	703	196.070710927807	1
0	703	196.070710927807	0
0	708	197.834798319995	0
0	708	197.834798319995	1
0	712	200.424624465492	1
0	714	200.471723736547	1
0	714	200.471723736547	0
0	715	200.736506009885	0
0	718	201.165013614064	0
0	727	204.17998188625	0
0	727	204.17998188625	1
0	729	204.648860041877	1
0	735	205.788655448541	1
0	737	205.977220172792	1
0	737	205.977220172792	0
0	738	206.573770089668	0
0	741	206.936848929852	0
0	741	206.936848929852	1
0	745	208.764375197668	1
0	745	208.764375197668	0
0	746	209.462312746499	0
0	746	209.462312746499	1
0	750	212.319738094315	1
0	750	212.319738094315	0
0	753	213.324853742887	0
0	753	213.324853742887	1
0	759	214.555572593917	1
0	759	214.555572593917	0
0	760	214.629078971335	0
0	760	214.629078971335	1
0	762	214.975512298829	1
0	762	214.975512298829	0
0	763	215.140805311149	0
0	768	216.331786764545	0
0	768	216.331786764545	1
0	772	217.22883977865	1
0	772	217.22883977865	0
0	775	219.499549886046	0
0	776	220.366841904876	0
0	776	220.366841904876	1
0	784	224.086250215775	1
0	784	224.086250215775	0
0	785	224.457865970602	0
0	786	225.202244231999	0
0	787	226.590921505866	0
0	788	226.996647849732	0
0	793	229.575760980517	0
0	794	230.064869391137	0
0	797	231.038747982616	0
0	798	231.069449755627	0
0	801	232.308486263005	0
0	802	232.316401609511	0
0	802	232.316401609511	1
0	804	232.341234817257	1
0	804	232.341234817257	0
0	807	234.893711310804	0
0	808	234.987466698413	0
0	809	235.508245563283	0
0	809	235.508245563283	1
0	811	236.062514036696	1
0	815	237.035986580341	1
0	819	237.363196961667	1
0	821	237.598602828171	1
0	823	237.721565395058	1
0	828	238.582280102571	1
0	828	238.582280102571	0
0	835	239.356796890505	0
0	838	242.647445720764	0
0	839	242.664461344493	0
0	840	243.245469999952	0
0	840	243.245469999952	1
0	842	243.95842647908	1
0	844	243.987958290243	1
0	855	246.507846984089	1
0	857	247.282460720445	1
0	865	249.46517460973	1
0	871	250.60679013325	1
0	877	254.057800262609	1
0	879	254.438311211171	1
0	879	254.438311211171	0
0	880	254.721383647018	0
0	880	254.721383647018	1
0	886	255.548709570621	1
0	890	255.723619830716	1
0	894	256.634765638786	1
0	894	256.634765638786	0
0	897	256.90663147736	0
0	897	256.90663147736	1
0	899	257.776246838197	1
0	903	257.933918891026	1
0	907	258.342836420272	1
0	907	258.342836420272	0
0	908	258.405859864529	0
0	908	258.405859864529	1
0	917	260.78892813772	1
0	917	260.78892813772	0
0	918	262.135555426256	0
0	921	264.418949460675	0
0	921	264.418949460675	1
0	931	268.307594183444	1
0	931	268.307594183444	0
0	932	268.82379763838	0
0	933	269.096148864734	0
0	934	269.818751102269	0
0	934	269.818751102269	1
0	936	270.277502404915	1
0	940	270.887264577773	1
0	944	271.298965155645	1
0	948	272.197367522081	1
0	948	272.197367522081	0
0	951	272.635106978194	0
0	951	272.635106978194	1
0	955	273.705189467821	1
0	955	273.705189467821	0
0	956	274.761630462002	0
0	956	274.761630462002	1
0	960	275.838020921419	1
0	964	276.344284888501	1
0	964	276.344284888501	0
0	965	276.662054229882	0
0	965	276.662054229882	1
0	967	276.747675023992	1
0	979	278.196996893467	1
0	979	278.196996893467	0
0	980	278.764884586586	0
0	981	279.158101873576	0
0	982	280.033740671666	0
0	983	282.789953749143	0
0	984	284.674818363347	0
0	984	284.674818363347	1
0	992	287.421070233571	1
0	992	287.421070233571	0
0	993	289.711327453471	0
0	993	289.711327453471	1
0	995	289.720298840805	1
0	997	290.409009684761	1
0	997	290.409009684761	0
0	1002	291.279089595128	0
0	1003	291.555577279229	0
0	1003	291.555577279229	1
0	1005	291.740733332714	1
0	1015	293.70385662227	1
0	1015	293.70385662227	0
0	1020	297.122993124956	0
0	1020	297.122993124956	1
0	1022	297.640160052026	1
0	1022	297.640160052026	0
0	1025	298.150672627961	0
0	1025	298.150672627961	1
0	1027	298.282884227789	1
0	1033	299.533832888447	1
0	1039	300.553228076515	1
0	1039	300.553228076515	0
0	1046	302.281487449482	0
0	1046	302.281487449482	1
0	1048	302.800741174362	1
0	1048	302.800741174362	0
0	1051	303.320563119242	0
0	1052	303.707760586483	0
0	1052	303.707760586483	1
0	1054	303.738168580247	1
0	1060	305.074736997569	1
0	1060	305.074736997569	0
0	1061	305.831591314795	0
0	1062	305.920677272285	0
0	1062	305.920677272285	1
0	1068	307.016327142534	1
0	1070	307.781866224808	1
0	1078	308.299789669878	1
0	1086	309.772402532421	1
0	1088	310.239555758881	1
0	1090	310.491695435313	1
0	1090	310.491695435313	0
0	1091	310.575655475346	0
0	1091	310.575655475346	1
0	1093	310.664826557614	1
0	1093	310.664826557614	0
0	1094	310.67355445392	0
0	1095	310.69881557572	0
0	1095	310.69881557572	1
0	1098	310.85463476183	1
0	1103	311.575687166249	1
0	1103	311.575687166249	0
0	1106	311.827561950942	0
0	1106	311.827561950942	1
0	1110	311.884245832099	1
0	1110	311.884245832099	0
0	1113	314.305582478542	0
0	1113	314.305582478542	1
0	1125	316.467987421267	1
0	1129	318.728387868642	1
0	1133	320.777125862215	1
0	1133	320.777125862215	0
0	1134	321.878521940522	0
0	1143	326.248521691949	0
0	1143	326.248521691949	1
0	1147	328.158076710452	1
0	1147	328.158076710452	0
0	1148	328.661502825906	0
0	1149	328.709440025488	0
0	1149	328.709440025488	1
0	1157	332.240681425979	1
0	1163	333.400197391984	1
0	1165	333.955229117298	1
0	1169	334.053828617496	1
0	1169	334.053828617496	0
0	1178	337.89574492096	0
0	1178	337.89574492096	1
0	1180	338.744011730799	1
0	1180	338.744011730799	0
0	1183	340.234260817477	0
0	1183	340.234260817477	1
0	1187	342.537867694106	1
0	1191	343.055896751224	1
0	1193	343.299826421085	1
0	1195	343.481405638745	1
0	1206	346.042199553512	1
0	1208	346.390448187692	1
0	1208	346.390448187692	0
0	1209	346.993926980121	0
0	1212	347.675062258219	0
0	1213	349.180913401299	0
0	1216	351.040319973717	0
0	1223	354.746310611038	0
0	1224	354.860171268343	0
0	1225	355.700004769728	0
0	1226	355.983106598718	0
0	1226	355.983106598718	1
0	1234	358.721129893991	1
0	1238	359.009343061899	1
0	1238	359.009343061899	0
0	1243	360.030175480951	0
0	1244	361.211580879542	0
0	1247	362.432861056447	0
0	1250	364.711170799254	0
0	1250	364.711170799254	1
0	1258	366.180704115123	1
0	1258	366.180704115123	0
0	1259	366.569337681354	0
0	1260	367.514355671965	0
0	1260	367.514355671965	1
0	1262	367.97263023502	1
0	1271	369.268086898946	1
0	1271	369.268086898946	0
0	1272	369.822171043793	0
0	1272	369.822171043793	1
0	1274	370.055684749831	1
0	1274	370.055684749831	0
0	1275	370.148072268586	0
0	1275	370.148072268586	1
0	1279	371.069951526865	1
0	1279	371.069951526865	0
0	1284	372.69396197066	0
0	1284	372.69396197066	1
0	1290	373.993161303092	1
0	1290	373.993161303092	0
0	1302	375.081777476145	0
0	1307	375.691848267421	0
0	1307	375.691848267421	1
0	1309	375.805252989613	1
0	1309	375.805252989613	0
0	1327	377.505376918877	0
0	1327	377.505376918877	1
0	1331	378.032545708573	1
0	1331	378.032545708573	0
0	1334	378.500169785841	0
0	1337	379.225093222149	0
0	1342	381.423858511814	0
0	1345	382.576269531191	0
0	1356	384.740896706867	0
0	1356	384.740896706867	1
0	1358	385.155853289591	1
0	1358	385.155853289591	0
0	1363	386.072676326887	0
0	1363	386.072676326887	1
0	1365	386.369623385668	1
0	1365	386.369623385668	0
0	1370	387.385336058724	0
0	1370	387.385336058724	1
0	1376	388.815555406981	1
0	1380	389.700772251632	1
0	1380	389.700772251632	0
0	1383	391.359365638537	0
0	1386	391.951540442514	0
0	1393	394.416300578935	0
0	1396	394.838704028337	0
0	1396	394.838704028337	1
0	1402	396.848212645037	1
0	1404	397.430393698173	1
0	1408	398.096724574196	1
0	1412	398.691600830087	1
0	1412	398.691600830087	0
0	1417	399.530574113015	0
0	1417	399.530574113015	1
0	1423	401.546391577352	1
0	1423	401.546391577352	0
0	1428	402.534540230517	0
0	1433	403.611198879369	0
0	1434	404.902161584955	0
0	1434	404.902161584955	1
0	1436	405.081872644198	1
0	1436	405.081872644198	0
0	1439	406.461087994935	0
0	1440	407.148962766417	0
0	1440	407.148962766417	1
0	1442	407.240401414458	1
0	1442	407.240401414458	0
0	1449	409.231617054953	0
0	1450	412.131115708629	0
0	1451	412.859529684038	0
0	1451	412.859529684038	1
0	1455	413.668413372655	1
0	1460	414.073486601837	1
0	1460	414.073486601837	0
0	1461	414.178550434738	0
0	1461	414.178550434738	1
0	1465	414.824030205763	1
0	1475	416.538953309863	1
0	1479	418.5302098012	1
0	1481	418.601546807615	1
0	1487	419.824736548165	1
0	1487	419.824736548165	0
0	1488	420.197018331303	0
0	1488	420.197018331303	1
0	1492	421.465090255157	1
0	1494	421.874529567826	1
0	1500	423.175642205687	1
0	1508	424.864120033711	1
0	1508	424.864120033711	0
0	1511	425.288012374035	0
0	1512	425.902292652651	0
0	1512	425.902292652651	1
0	1516	426.291392711055	1
0	1516	426.291392711055	0
0	1517	426.671922421148	0
0	1520	427.330830967985	0
0	1520	427.330830967985	1
0	1522	427.402523186038	1
0	1528	429.515921470321	1
0	1528	429.515921470321	0
0	1529	430.843244442809	0
0	1529	430.843244442809	1
0	1531	431.037435421589	1
0	1541	433.836958190053	1
0	1541	433.836958190053	0
0	1542	434.731158180267	0
0	1542	434.731158180267	1
0	1546	437.278609431158	1
0	1546	437.278609431158	0
0	1549	438.914719171754	0
0	1549	438.914719171754	1
0	1551	438.926965010597	1
0	1551	438.926965010597	0
0	1554	439.316797257114	0
0	1557	441.209388586183	0
0	1557	441.209388586183	1
0	1563	442.398556660689	1
0	1567	443.051920127902	1
0	1567	443.051920127902	0
0	1570	443.938572262509	0
0	1570	443.938572262509	1
0	1574	446.220922827494	1
0	1586	448.750054267461	1
0	1588	448.795025935399	1
0	1599	450.911309783437	1
0	1599	450.911309783437	0
0	1602	451.191521261542	0
0	1628	454.263609901766	0
0	1628	454.263609901766	1
0	1668	460.491042069744	1
0	1668	460.491042069744	0
0	1673	460.566578530653	0
0	1673	460.566578530653	1
0	1680	461.837364650031	1
0	1682	462.268136563109	1
0	1682	462.268136563109	0
0	1685	462.561678966454	0
0	1685	462.561678966454	1
0	1694	464.680748919241	1
0	1694	464.680748919241	0
0	1695	465.448192842278	0
0	1695	465.448192842278	1
0	1701	466.051006746655	1
0	1703	466.407952382938	1
0	1703	466.407952382938	0
0	1710	466.970274807904	0
0	1710	466.970274807904	1
0	1717	467.648794356386	1
0	1717	467.648794356386	0
0	1724	468.0501686316	0
0	1724	468.0501686316	1
0	1726	468.064130699854	1
0	1728	468.725300383977	1
0	1728	468.725300383977	0
0	1733	469.021167591163	0
0	1738	469.393143599588	0
0	1739	469.524006535366	0
0	1739	469.524006535366	1
0	1743	470.180581177849	1
0	1743	470.180581177849	0
0	1744	470.276792672018	0
0	1744	470.276792672018	1
0	1748	470.537217741506	1
0	1748	470.537217741506	0
0	1755	471.693718507661	0
0	1755	471.693718507661	1
0	1760	472.492347338097	1
0	1760	472.492347338097	0
0	1764	472.57931251578	0
0	1764	472.57931251578	1
0	1780	474.931368400851	1
0	1784	475.136485376362	1
0	1784	475.136485376362	0
0	1785	475.25178820022	0
0	1785	475.25178820022	1
0	1787	475.55919635038	1
0	1787	475.55919635038	0
0	1800	479.251870071593	0
0	1805	481.840003737963	0
0	1805	481.840003737963	1
0	1807	481.96815232386	1
0	1807	481.96815232386	0
0	1812	483.374245840926	0
0	1812	483.374245840926	1
0	1818	485.537259039981	1
0	1818	485.537259039981	0
0	1823	486.960153301457	0
0	1834	490.373066564139	0
0	1845	492.020302567172	0
0	1845	492.020302567172	1
0	1847	492.49086704338	1
0	1847	492.49086704338	0
0	1852	493.515670288301	0
0	1852	493.515670288301	1
0	1858	494.774566293453	1
0	1881	498.598291867122	1
0	1881	498.598291867122	0
0	1882	498.879697601485	0
0	1882	498.879697601485	1
0	1886	499.876200541932	1
0	1904	506.087814918319	1
0	1908	508.329989575427	1
0	1914	509.185800895681	1
0	1914	509.185800895681	0
0	1921	510.33694865983	0
0	1922	510.445030967111	0
0	1922	510.445030967111	1
0	1924	510.626900109193	1
0	1926	510.901982422951	1
0	1926	510.901982422951	0
0	1927	511.151121318121	0
0	1927	511.151121318121	1
0	1934	512.387963581203	1
0	1940	513.856048494035	1
0	1940	513.856048494035	0
0	1945	514.029680367823	0
0	1945	514.029680367823	1
0	1947	514.342624221526	1
0	1958	515.953340940293	1
0	1964	517.706679644394	1
0	1966	517.768911861621	1
0	1966	517.768911861621	0
0	1978	520.053581000577	0
0	1989	521.901287620891	0
0	1989	521.901287620891	1
0	1995	522.581697473428	1
0	2003	523.541262451942	1
0	2003	523.541262451942	0
0	2012	526.230681840358	0
0	2012	526.230681840358	1
0	2020	528.119314796792	1
0	2024	530.543512550853	1
0	2024	530.543512550853	0
0	2025	532.16479915354	0
0	2025	532.16479915354	1
0	2027	532.164859725335	1
0	2027	532.164859725335	0
0	2030	533.20674162423	0
0	2033	534.324197825921	0
0	2036	534.682744410527	0
0	2037	536.092788701265	0
0	2038	536.512739412536	0
0	2038	536.512739412536	1
0	2042	538.481073852711	1
0	2042	538.481073852711	0
0	2047	539.539503661113	0
0	2047	539.539503661113	1
0	2053	541.154330455595	1
0	2055	541.262350001612	1
0	2055	541.262350001612	0
0	2060	542.791472235876	0
0	2060	542.791472235876	1
0	2062	542.854297267872	1
0	2062	542.854297267872	0
0	2063	543.014910875823	0
0	2066	544.498858342849	0
0	2067	545.33747704692	0
0	2067	545.33747704692	1
0	2083	549.411968294968	1
0	2083	549.411968294968	0
0	2092	550.88705534224	0
0	2092	550.88705534224	1
0	2098	551.329660216384	1
0	2098	551.329660216384	0
0	2101	551.882791437503	0
0	2108	552.974022354092	0
0	2108	552.974022354092	1
0	2114	553.063722364166	1
0	2114	553.063722364166	0
0	2122	554.062630134076	0
0	2129	555.10201882313	0
0	2129	555.10201882313	1
0	2131	555.326351275577	1
0	2136	555.738600649547	1
0	2136	555.738600649547	0
0	2161	559.671326384197	0
0	2168	561.192669749239	0
0	2169	561.349833171601	0
0	2178	566.29562086579	0
0	2179	566.673989572857	0
0	2182	569.006815890111	0
0	2183	569.974540928233	0
0	2186	570.142237476847	0
0	2189	571.755676382961	0
0	2190	571.863614457788	0
0	2193	572.209176194501	0
0	2193	572.209176194501	1
0	2195	572.359703515457	1
0	2195	572.359703515457	0
0	2196	572.761071478451	0
0	2197	572.813473877255	0
0	2197	572.813473877255	1
0	2201	573.215847088536	1
0	2203	573.601989513973	1
0	2203	573.601989513973	0
0	2208	576.53582121178	0
0	2209	576.992284825805	0
0	2209	576.992284825805	1
0	2211	577.017365795367	1
0	2211	577.017365795367	0
0	2212	577.035294229743	0
0	2223	580.208855362437	0
0	2224	582.366131831186	0
0	2225	583.832142924633	0
0	2226	585.076488002483	0
0	2226	585.076488002483	1
0	2228	585.131719087052	1
0	2230	585.6362690151	1
0	2232	585.819513979846	1
0	2243	587.544946004554	1
0	2245	587.559300042521	1
0	2245	587.559300042521	0
0	2250	589.598352875192	0
0	2251	589.989992476338	0
0	2251	589.989992476338	1
0	2257	591.541938241421	1
0	2257	591.541938241421	0
0	2258	591.719213428983	0
0	2259	591.804315109054	0
0	2260	592.524185634829	0
0	2260	592.524185634829	1
0	2262	592.774353264168	1
0	2262	592.774353264168	0
0	2263	593.038731001339	0
0	2263	593.038731001339	1
0	2267	593.78510311342	1
0	2267	593.78510311342	0
0	2270	594.056286222961	0
0	2271	594.756355868686	0
0	2271	594.756355868686	1
0	2273	594.974977344303	1
0	2273	594.974977344303	0
0	2274	595.002428941974	0
0	2275	595.090362287279	0
0	2275	595.090362287279	1
0	2279	595.81835224412	1
0	2279	595.81835224412	0
0	2282	596.858197425699	0
0	2282	596.858197425699	1
0	2284	597.495355217122	1
0	2284	597.495355217122	0
0	2285	597.496072435017	0
0	2285	597.496072435017	1
0	2287	597.846895925085	1
0	2287	597.846895925085	0
0	2294	598.798042438714	0
1	6	1	1
1	10	2	1
1	14	2.402120461562	1
1	16	3	1
1	22	4	1
1	29	5	1
1	33	5.00037454741	1
1	36	6	1
1	41	8	1
1	51	13	1
1	53	13.620904215956	1
1	62	14.956194400579	1
1	71	15.737291729283	1
1	73	16	1
1	74	16	1
1	77	16.594274179422	1
1	85	18.919378428984	1
1	89	19.889815297094	1
1	91	20	1
1	95	23	1
1	102	24.34431214327	1
1	109	25.252530732739	1
1	111	25.425658188885	1
1	113	25.542613598677	1
1	120	27	1
1	124	28	1
1	130	30.939361674567	1
1	134	32	1
1	140	33.063598871568	1
1	142	33.896442387634	1
1	148	35	1
1	151	35.899682910141	1
1	156	39	1
1	167	41	1
1	169	41.727225297976	1
1	174	43	1
1	181	44.971351387607	1
1	183	45	1
1	188	47	1
1	196	51	1
1	197	51	1
1	203	52.544855910463	1
1	208	53.983103324987	1
1	215	55.993613053976	1
1	220	57	1
1	228	61	1
1	230	61.228871639213	1
1	240	64.131129683466	1
1	243	65	1
1	247	66.893560663986	1
1	254	68	1
1	256	68.967222543823	1
1	265	72	1
1	272	74	1
1	276	75	1
1	280	76	1
1	282	76.658797295012	1
1	292	78.734828355454	1
1	294	78.767185160099	1
1	299	79.918624659744	1
1	305	82	1
1	306	82	1
1	313	85.658681184417	1
1	315	86	1
1	322	89	1
1	326	89.842273588642	1
1	328	90	1
1	337	91.970943683173	1
1	339	92	1
1	343	92.238529089579	1
1	347	93	1
1	352	93.376067595119	1
1	356	94	1
1	358	94.754020309952	1
1	368	97	1
1	372	97.606576868277	1
1	376	98	1
1	379	98.867842090576	1
1	385	101.587776600498	1
1	390	102	1
1	392	103	1
1	398	105.402419275762	1
1	404	106.819141079478	1
1	409	109	1
1	416	110.915965281967	1
1	418	111	1
1	430	114.289937247813	1
1	432	114.535135340455	1
1	436	115	1
1	443	115.918451806606	1
1	445	116.25660652145	1
1	447	116.378859789975	1
1	451	118	1
1	460	119.696226055046	1
1	462	120	1
1	471	127	1
1	472	127	1
1	484	135.309272914804	1
1	490	137	1
1	492	138	1
1	497	139.391372184541	1
1	503	142.661423552169	1
1	512	144.064823684424	1
1	518	144.961152889444	1
1	521	145.608327593487	1
1	523	145.912299152715	1
1	529	147.671104995787	1
1	531	148	1
1	535	149.585947253429	1
1	539	150.779960624024	1
1	547	153.790588649361	1
1	550	154.55902018288	1
1	560	155.763364676788	1
1	564	156	1
1	566	156.226754704327	1
1	571	158.271217530811	1
1	579	159.740183780417	1
1	581	160.376829345216	1
1	586	163.716844017013	1
1	590	165	1
1	604	167.256716405526	1
1	607	167.625299345136	1
1	612	171.151452555788	1
1	618	174.185395128185	1
1	620	175.042830230798	1
1	627	177	1
1	629	178	1
1	636	179.654288618317	1
1	638	180.413253392565	1
1	644	182.279893862745	1
1	646	183.048356440136	1
1	657	185.8372419212	1
1	662	186.232807521595	1
1	671	186.952452419283	1
1	674	187.242725834406	1
1	676	187.492676651055	1
1	680	189	1
1	685	192	1
1	691	193.248423681287	1
1	695	193.800225802925	1
1	697	194.358552592189	1
1	704	196.087672229871	1
1	706	196.62357102521	1
1	710	198.834798319995	1
1	719	201.424624465492	1
1	723	202	1
1	725	203	1
1	731	205.17998188625	1
1	733	205.648860041877	1
1	739	206.788655448541	1
1	743	207.936848929852	1
1	748	210.462312746499	1
1	755	214	1
1	757	214.324853742887	1
1	764	215.629078971335	1
1	770	217	1
1	773	217.331786764545	1
1	778	221.366841904876	1
1	782	224	1
1	791	229	1
1	799	232	1
1	805	233.316401609511	1
1	813	236.508245563283	1
1	817	237.062514036696	1
1	825	238.035986580341	1
1	829	238.598602828171	1
1	831	238.721565395058	1
1	836	240	1
1	849	244.95842647908	1
1	851	244.987958290243	1
1	853	245	1
1	859	247.507846984089	1
1	861	248.282460720445	1
1	867	250	1
1	869	250.46517460973	1
1	873	251.60679013325	1
1	882	255	1
1	884	255.057800262609	1
1	888	255.721383647018	1
1	892	256.548709570621	1
1	895	256.723619830716	1
1	901	257.90663147736	1
1	911	258.933918891026	1
1	913	259	1
1	915	259.405859864529	1
1	923	265	1
1	925	265.418949460675	1
1	929	267	1
1	938	270.818751102269	1
1	942	271.277502404915	1
1	946	271.887264577773	1
1	949	272.298965155645	1
1	953	273.635106978194	1
1	958	275.761630462002	1
1	969	276.838020921419	1
1	975	277.747675023992	1
1	977	278	1
1	988	285.674818363347	1
1	990	286	1
1	998	290.711327453471	1
1	1000	290.720298840805	1
1	1009	292.555577279229	1
1	1011	292.740733332714	1
1	1013	293	1
1	1018	296	1
1	1023	298.122993124956	1
1	1029	299.150672627961	1
1	1031	299.282884227789	1
1	1037	300.533832888447	1
1	1042	301	1
1	1044	302	1
1	1049	303.281487449482	1
1	1056	304.707760586483	1
1	1058	304.738168580247	1
1	1064	306.920677272285	1
1	1074	308	1
1	1076	308.016327142534	1
1	1080	308.781866224808	1
1	1082	309	1
1	1084	309.299789669878	1
1	1100	311.239555758881	1
1	1104	311.69881557572	1
1	1108	311.85463476183	1
1	1111	312.827561950942	1
1	1119	315.305582478542	1
1	1121	316	1
1	1122	316	1
1	1127	317.467987421267	1
1	1131	319.728387868642	1
1	1137	323	1
1	1141	326	1
1	1145	327.248521691949	1
1	1151	329.709440025488	1
1	1155	332	1
1	1161	333.240681425979	1
1	1167	334	1
1	1170	334.400197391984	1
1	1172	334.955229117298	1
1	1176	337	1
1	1181	338.89574492096	1
1	1185	341.234260817477	1
1	1198	344	1
1	1200	344.055896751224	1
1	1202	344.299826421085	1
1	1204	344.481405638745	1
1	1210	347.042199553512	1
1	1219	352	1
1	1221	353	1
1	1228	356.983106598718	1
1	1232	358	1
1	1239	359.721129893991	1
1	1241	360	1
1	1248	363	1
1	1254	365.711170799254	1
1	1256	366	1
1	1267	368.97263023502	1
1	1269	369	1
1	1277	370.822171043793	1
1	1280	371.148072268586	1
1	1286	373	1
1	1288	373.69396197066	1
1	1298	375	1
1	1303	375.5	1
1	1310	376	1
1	1317	376.691848267421	1
1	1319	377	1
1	1323	377.5	1
1	1329	378	1
1	1332	378.5	1
1	1335	378.505376918877	1
1	1340	380.5	1
1	1348	383.5	1
1	1352	384	1
1	1354	384.5	1
1	1361	385.740896706867	1
1	1366	386.5	1
1	1368	387.072676326887	1
1	1372	388.385336058724	1
1	1378	389.5	1
1	1381	389.815555406981	1
1	1389	392.5	1
1	1391	393	1
1	1398	395.5	1
1	1400	395.838704028337	1
1	1406	397.848212645037	1
1	1410	398.430393698173	1
1	1413	399.096724574196	1
1	1419	400.5	1
1	1421	400.530574113015	1
1	1429	403	1
1	1431	403.5	1
1	1437	405.902161584955	1
1	1445	408.148962766417	1
1	1447	408.5	1
1	1458	414	1
1	1463	414.668413372655	1
1	1467	415.178550434738	1
1	1471	415.824030205763	1
1	1473	416.5	1
1	1477	417.538953309863	1
1	1483	419.5302098012	1
1	1485	419.601546807615	1
1	1490	421.197018331303	1
1	1496	422.465090255157	1
1	1498	422.874529567826	1
1	1504	424.175642205687	1
1	1506	424.5	1
1	1514	426	1
1	1518	426.902292652651	1
1	1524	428.330830967985	1
1	1526	428.402523186038	1
1	1533	431.843244442809	1
1	1535	432.037435421589	1
1	1539	433.5	1