version 2
run ACSize-0-20130107-19:57:40-4652
attr configname ACSize
attr datetime 20130107-19:57:40
attr experiment ACSize
attr inifile omnetpp.ini
attr iterationvars ""
attr iterationvars2 $repetition=0
attr measurement ""
attr network tirtproject.AdmissionControl.ACSize
attr processid 4652
attr repetition 0
attr replication #0
attr resultdir results
attr runnumber 0
attr seedset 0

vector 0  ACSize.OnOff  "Changes vector"  ETV
attr interpolationmode  none
vector 2  ACSize.AC  "Propability vector"  ETV
attr interpolationmode  none
vector 1  ACSize.AC  "Arrivals AC"  ETV
attr interpolationmode  none
vector 3  ACSize.sink  arrivals  ETV
attr interpolationmode  none
0	1	0	1
0	3	0.64944634825	1
0	3	0.64944634825	0
0	7	1.402120461562	0
0	7	1.402120461562	1
0	21	4.00037454741	1
0	28	5.787862210848	1
0	28	5.787862210848	0
0	32	7.828754426759	0
0	34	8.964693368469	0
0	35	10.239921070692	0
0	36	11.112242265734	0
0	37	11.883076924201	0
0	40	12.620904215956	0
0	40	12.620904215956	1
0	44	13.956194400579	1
0	46	14.200242891315	1
0	46	14.200242891315	0
0	47	14.345520918607	0
0	48	14.737291729283	0
0	48	14.737291729283	1
0	50	14.899428218728	1
0	50	14.899428218728	0
0	56	15.150870150802	0
0	57	15.594274179422	0
0	57	15.594274179422	1
0	65	16.983316869213	1
0	65	16.983316869213	0
0	66	17.919378428984	0
0	66	17.919378428984	1
0	68	18.312490986288	1
0	68	18.312490986288	0
0	69	18.889815297094	0
0	69	18.889815297094	1
0	79	23.34431214327	1
0	81	23.972253724261	1
0	81	23.972253724261	0
0	82	24.252530732739	0
0	82	24.252530732739	1
0	86	24.425658188885	1
0	88	24.542613598677	1
0	90	24.924169442051	1
0	90	24.924169442051	0
0	96	26.430804775323	0
0	100	27.405906709479	0
0	101	27.988785098345	0
0	103	28.116841863656	0
0	104	28.772488148019	0
0	105	29.939361674567	0
0	105	29.939361674567	1
0	112	32.063598871568	1
0	114	32.896442387634	1
0	120	34.899682910141	1
0	123	35.757578551215	1
0	123	35.757578551215	0
0	127	38.406834479891	0
0	133	40.254162130892	0
0	134	40.412503637122	0
0	135	40.727225297976	0
0	135	40.727225297976	1
0	142	42.055983171726	1
0	142	42.055983171726	0
0	145	43.46700758102	0
0	146	43.971351387607	0
0	146	43.971351387607	1
0	154	46.235084963467	1
0	154	46.235084963467	0
0	160	50.07809154671	0
0	161	50.58040234497	0
0	164	51.544855910463	0
0	164	51.544855910463	1
0	166	51.903783126332	1
0	166	51.903783126332	0
0	168	52.983103324987	0
0	168	52.983103324987	1
0	170	53.325702949685	1
0	170	53.325702949685	0
0	172	54.288078005456	0
0	173	54.848039075529	0
0	174	54.993613053976	0
0	174	54.993613053976	1
0	176	55.347837186221	1
0	176	55.347837186221	0
0	180	56.191725658811	0
0	182	59.664261138093	0
0	185	60.228871639213	0
0	185	60.228871639213	1
0	187	60.801333190641	1
0	187	60.801333190641	0
0	193	63.026247847866	0
0	194	63.131129683466	0
0	194	63.131129683466	1
0	200	64.383737208377	1
0	200	64.383737208377	0
0	202	65.893560663986	0
0	202	65.893560663986	1
0	207	67.895547159511	1
0	207	67.895547159511	0
0	208	67.967222543823	0
0	208	67.967222543823	1
0	212	69.162661110105	1
0	212	69.162661110105	0
0	213	69.766960181952	0
0	216	71.047294385764	0
0	217	71.064062151756	0
0	218	71.326391460922	0
0	220	72.77418554291	0
0	230	75.658797295012	0
0	230	75.658797295012	1
0	236	77.734828355454	1
0	238	77.767185160099	1
0	240	77.94714250165	1
0	240	77.94714250165	0
0	244	78.918624659744	0
0	244	78.918624659744	1
0	246	79.779548296424	1
0	246	79.779548296424	0
0	255	84.658681184417	0
0	255	84.658681184417	1
0	264	88.173159864953	1
0	264	88.173159864953	0
0	265	88.842273588642	0
0	265	88.842273588642	1
0	273	90.970943683173	1
0	277	91.168911418506	1
0	277	91.168911418506	0
0	278	91.238529089579	0
0	278	91.238529089579	1
0	285	92.376067595119	1
0	290	93.145187396215	1
0	290	93.145187396215	0
0	292	93.754020309952	0
0	292	93.754020309952	1
0	299	96.122938480788	1
0	301	96.606576868277	1
0	307	97.49407879676	1
0	307	97.49407879676	0
0	309	97.867842090576	0
0	309	97.867842090576	1
0	313	98.422012919624	1
0	313	98.422012919624	0
0	315	100.587776600498	0
0	315	100.587776600498	1
0	320	101.72683425117	1
0	320	101.72683425117	0
0	325	103.849580905111	0
0	326	104.402419275762	0
0	326	104.402419275762	1
0	328	104.871095751738	1
0	328	104.871095751738	0
0	330	105.493925061502	0
0	331	105.819141079478	0
0	331	105.819141079478	1
0	333	106.70292673551	1
0	333	106.70292673551	0
0	337	108.696965936786	0
0	339	109.915965281967	0
0	339	109.915965281967	1
0	343	110.538002201048	1
0	343	110.538002201048	0
0	347	111.818426555026	0
0	348	113.192769569446	0
0	348	113.192769569446	1
0	350	113.289937247813	1
0	352	113.535135340455	1
0	359	114.918451806606	1
0	363	115.25660652145	1
0	365	115.362293695554	1
0	365	115.362293695554	0
0	366	115.378859789975	0
0	366	115.378859789975	1
0	374	118.031418305495	1
0	376	118.696226055046	1
0	384	122.490249838133	1
0	384	122.490249838133	0
0	385	125.326890031508	0
0	390	126.932348794575	0
0	393	127.246346692638	0
0	394	127.774813920939	0
0	395	129.501447300681	0
0	396	129.711980588885	0
0	397	129.840560826161	0
0	398	133.78819409372	0
0	399	134.309272914804	0
0	399	134.309272914804	1
0	401	135.151409217641	1
0	401	135.151409217641	0
0	409	138.391372184541	0
0	409	138.391372184541	1
0	411	139.153795868755	1
0	411	139.153795868755	0
0	413	139.517038087656	0
0	414	141.661423552169	0
0	414	141.661423552169	1
0	416	141.949936262517	1
0	416	141.949936262517	0
0	420	143.064823684424	0
0	420	143.064823684424	1
0	422	143.961152889444	1
0	427	144.608327593487	1
0	429	144.912299152715	1
0	432	145.521363608038	1
0	432	145.521363608038	0
0	435	146.671104995787	0
0	435	146.671104995787	1
0	441	148.585947253429	1
0	444	149.779960624024	1
0	448	151.288175855651	1
0	448	151.288175855651	0
0	449	152.790588649361	0
0	449	152.790588649361	1
0	451	153.090913729646	1
0	451	153.090913729646	0
0	452	153.55902018288	0
0	452	153.55902018288	1
0	455	154.444780828909	1
0	455	154.444780828909	0
0	457	154.763364676788	0
0	457	154.763364676788	1
0	463	155.226754704327	1
0	466	155.789579906144	1
0	466	155.789579906144	0
0	472	156.502964188944	0
0	473	157.271217530811	0
0	473	157.271217530811	1
0	477	158.415012909929	1
0	477	158.415012909929	0
0	478	158.740183780417	0
0	478	158.740183780417	1
0	480	158.878137012346	1
0	480	158.878137012346	0
0	481	159.376829345216	0
0	481	159.376829345216	1
0	486	162.509658834762	1
0	486	162.509658834762	0
0	487	162.716844017013	0
0	487	162.716844017013	1
0	493	165.060083947105	1
0	493	165.060083947105	0
0	494	165.615742860263	0
0	494	165.615742860263	1
0	498	166.256716405526	1
0	501	166.625299345136	1
0	503	166.890392446542	1
0	503	166.890392446542	0
0	506	167.590418082657	0
0	508	169.540394994503	0
0	509	170.151452555788	0
0	509	170.151452555788	1
0	512	173.185395128185	1
0	514	174.042830230798	1
0	518	175.761899542586	1
0	518	175.761899542586	0
0	526	178.157079331975	0
0	527	178.654288618317	0
0	527	178.654288618317	1
0	529	179.413253392565	1
0	534	181.279893862745	1
0	536	182.048356440136	1
0	540	183.188635317055	1
0	540	183.188635317055	0
0	541	184.128137302918	0
0	542	184.23180813956	0
0	543	184.8372419212	0
0	543	184.8372419212	1
0	547	185.232807521595	1
0	551	185.952452419283	1
0	555	186.242725834406	1
0	557	186.492676651055	1
0	559	186.784622722783	1
0	559	186.784622722783	0
0	560	186.925098439738	0
0	561	186.937207684799	0
0	563	187.059922692115	0
0	569	190.719484810576	0
0	573	192.248423681287	0
0	573	192.248423681287	1
0	575	192.800225802925	1
0	578	193.358552592189	1
0	582	195.087672229871	1
0	584	195.62357102521	1
0	586	196.070710927807	1
0	586	196.070710927807	0
0	589	197.834798319995	0
0	589	197.834798319995	1
0	593	200.424624465492	1
0	595	200.471723736547	1
0	595	200.471723736547	0
0	596	200.736506009885	0
0	599	201.165013614064	0
0	605	204.17998188625	0
0	605	204.17998188625	1
0	607	204.648860041877	1
0	611	205.788655448541	1
0	613	205.977220172792	1
0	613	205.977220172792	0
0	614	206.573770089668	0
0	616	206.936848929852	0
0	616	206.936848929852	1
0	619	208.764375197668	1
0	619	208.764375197668	0
0	620	209.462312746499	0
0	620	209.462312746499	1
0	623	212.319738094315	1
0	623	212.319738094315	0
0	626	213.324853742887	0
0	626	213.324853742887	1
0	630	214.555572593917	1
0	630	214.555572593917	0
0	631	214.629078971335	0
0	631	214.629078971335	1
0	633	214.975512298829	1
0	633	214.975512298829	0
0	634	215.140805311149	0
0	638	216.331786764545	0
0	638	216.331786764545	1
0	641	217.22883977865	1
0	641	217.22883977865	0
0	643	219.499549886046	0
0	644	220.366841904876	0
0	644	220.366841904876	1
0	651	224.086250215775	1
0	651	224.086250215775	0
0	652	224.457865970602	0
0	653	225.202244231999	0
0	654	226.590921505866	0
0	655	226.996647849732	0
0	659	229.575760980517	0
0	660	230.064869391137	0
0	663	231.038747982616	0
0	664	231.069449755627	0
0	666	232.308486263005	0
0	667	232.316401609511	0
0	667	232.316401609511	1
0	669	232.341234817257	1
0	669	232.341234817257	0
0	671	234.893711310804	0
0	672	234.987466698413	0
0	673	235.508245563283	0
0	673	235.508245563283	1
0	675	236.062514036696	1
0	678	237.035986580341	1
0	681	237.363196961667	1
0	683	237.598602828171	1
0	685	237.721565395058	1
0	689	238.582280102571	1
0	689	238.582280102571	0
0	694	239.356796890505	0
0	696	242.647445720764	0
0	697	242.664461344493	0
0	698	243.245469999952	0
0	698	243.245469999952	1
0	700	243.95842647908	1
0	702	243.987958290243	1
0	711	246.507846984089	1
0	713	247.282460720445	1
0	719	249.46517460973	1
0	723	250.60679013325	1
0	728	254.057800262609	1
0	730	254.438311211171	1
0	730	254.438311211171	0
0	731	254.721383647018	0
0	731	254.721383647018	1
0	735	255.548709570621	1
0	739	255.723619830716	1
0	742	256.634765638786	1
0	742	256.634765638786	0
0	744	256.90663147736	0
0	744	256.90663147736	1
0	746	257.776246838197	1
0	749	257.933918891026	1
0	753	258.342836420272	1
0	753	258.342836420272	0
0	754	258.405859864529	0
0	754	258.405859864529	1
0	762	260.78892813772	1
0	762	260.78892813772	0
0	763	262.135555426256	0
0	766	264.418949460675	0
0	766	264.418949460675	1
0	773	268.307594183444	1
0	773	268.307594183444	0
0	774	268.82379763838	0
0	775	269.096148864734	0
0	776	269.818751102269	0
0	776	269.818751102269	1
0	778	270.277502404915	1
0	781	270.887264577773	1
0	784	271.298965155645	1
0	788	272.197367522081	1
0	788	272.197367522081	0
0	790	272.635106978194	0
0	790	272.635106978194	1
0	793	273.705189467821	1
0	793	273.705189467821	0
0	794	274.761630462002	0
0	794	274.761630462002	1
0	798	275.838020921419	1
0	802	276.344284888501	1
0	802	276.344284888501	0
0	803	276.662054229882	0
0	803	276.662054229882	1
0	805	276.747675023992	1
0	816	278.196996893467	1
0	816	278.196996893467	0
0	817	278.764884586586	0
0	818	279.158101873576	0
0	819	280.033740671666	0
0	820	282.789953749143	0
0	821	284.674818363347	0
0	821	284.674818363347	1
0	827	287.421070233571	1
0	827	287.421070233571	0
0	828	289.711327453471	0
0	828	289.711327453471	1
0	830	289.720298840805	1
0	832	290.409009684761	1
0	832	290.409009684761	0
0	835	291.279089595128	0
0	836	291.555577279229	0
0	836	291.555577279229	1
0	838	291.740733332714	1
0	846	293.70385662227	1
0	846	293.70385662227	0
0	850	297.122993124956	0
0	850	297.122993124956	1
0	852	297.640160052026	1
0	852	297.640160052026	0
0	854	298.150672627961	0
0	854	298.150672627961	1
0	856	298.282884227789	1
0	861	299.533832888447	1
0	867	300.553228076515	1
0	867	300.553228076515	0
0	872	302.281487449482	0
0	872	302.281487449482	1
0	874	302.800741174362	1
0	874	302.800741174362	0
0	876	303.320563119242	0
0	877	303.707760586483	0
0	877	303.707760586483	1
0	879	303.738168580247	1
0	883	305.074736997569	1
0	883	305.074736997569	0
0	884	305.831591314795	0
0	885	305.920677272285	0
0	885	305.920677272285	1
0	890	307.016327142534	1
0	892	307.781866224808	1
0	898	308.299789669878	1
0	903	309.772402532421	1
0	905	310.239555758881	1
0	907	310.491695435313	1
0	907	310.491695435313	0
0	908	310.575655475346	0
0	908	310.575655475346	1
0	910	310.664826557614	1
0	910	310.664826557614	0
0	911	310.67355445392	0
0	912	310.69881557572	0
0	912	310.69881557572	1
0	915	310.85463476183	1
0	919	311.575687166249	1
0	919	311.575687166249	0
0	921	311.827561950942	0
0	921	311.827561950942	1
0	924	311.884245832099	1
0	924	311.884245832099	0
0	926	314.305582478542	0
0	926	314.305582478542	1
0	935	316.467987421267	1
0	938	318.728387868642	1
0	941	320.777125862215	1
0	941	320.777125862215	0
0	942	321.878521940522	0
0	949	326.248521691949	0
0	949	326.248521691949	1
0	952	328.158076710452	1
0	952	328.158076710452	0
0	953	328.661502825906	0
0	954	328.709440025488	0
0	954	328.709440025488	1
0	961	332.240681425979	1
0	966	333.400197391984	1
0	968	333.955229117298	1
0	971	334.053828617496	1
0	971	334.053828617496	0
0	979	337.89574492096	0
0	979	337.89574492096	1
0	981	338.744011730799	1
0	981	338.744011730799	0
0	983	340.234260817477	0
0	983	340.234260817477	1
0	986	342.537867694106	1
0	990	343.055896751224	1
0	992	343.299826421085	1
0	994	343.481405638745	1
0	1004	346.042199553512	1
0	1006	346.390448187692	1
0	1006	346.390448187692	0
0	1007	346.993926980121	0
0	1009	347.675062258219	0
0	1010	349.180913401299	0
0	1013	351.040319973717	0
0	1018	354.746310611038	0
0	1019	354.860171268343	0
0	1020	355.700004769728	0
0	1021	355.983106598718	0
0	1021	355.983106598718	1
0	1027	358.721129893991	1
0	1031	359.009343061899	1
0	1031	359.009343061899	0
0	1034	360.030175480951	0
0	1035	361.211580879542	0
0	1038	362.432861056447	0
0	1041	364.711170799254	0
0	1041	364.711170799254	1
0	1048	366.180704115123	1
0	1048	366.180704115123	0
0	1049	366.569337681354	0
0	1050	367.514355671965	0
0	1050	367.514355671965	1
0	1052	367.97263023502	1
0	1059	369.268086898946	1
0	1059	369.268086898946	0
0	1060	369.822171043793	0
0	1060	369.822171043793	1
0	1062	370.055684749831	1
0	1062	370.055684749831	0
0	1063	370.148072268586	0
0	1063	370.148072268586	1
0	1066	371.069951526865	1
0	1066	371.069951526865	0
0	1070	372.69396197066	0
0	1070	372.69396197066	1
0	1074	373.993161303092	1
0	1074	373.993161303092	0
0	1085	375.081777476145	0
0	1089	375.691848267421	0
0	1089	375.691848267421	1
0	1091	375.805252989613	1
0	1091	375.805252989613	0
0	1106	377.505376918877	0
0	1106	377.505376918877	1
0	1109	378.032545708573	1
0	1109	378.032545708573	0
0	1111	378.500169785841	0
0	1113	379.225093222149	0
0	1118	381.423858511814	0
0	1121	382.576269531191	0
0	1129	384.740896706867	0
0	1129	384.740896706867	1
0	1131	385.155853289591	1
0	1131	385.155853289591	0
0	1135	386.072676326887	0
0	1135	386.072676326887	1
0	1137	386.369623385668	1
0	1137	386.369623385668	0
0	1140	387.385336058724	0
0	1140	387.385336058724	1
0	1145	388.815555406981	1
0	1148	389.700772251632	1
0	1148	389.700772251632	0
0	1150	391.359365638537	0
0	1153	391.951540442514	0
0	1158	394.416300578935	0
0	1161	394.838704028337	0
0	1161	394.838704028337	1
0	1165	396.848212645037	1
0	1167	397.430393698173	1
0	1170	398.096724574196	1
0	1173	398.691600830087	1
0	1173	398.691600830087	0
0	1178	399.530574113015	0
0	1178	399.530574113015	1
0	1182	401.546391577352	1
0	1182	401.546391577352	0
0	1187	402.534540230517	0
0	1190	403.611198879369	0
0	1191	404.902161584955	0
0	1191	404.902161584955	1
0	1193	405.081872644198	1
0	1193	405.081872644198	0
0	1196	406.461087994935	0
0	1197	407.148962766417	0
0	1197	407.148962766417	1
0	1199	407.240401414458	1
0	1199	407.240401414458	0
0	1204	409.231617054953	0
0	1205	412.131115708629	0
0	1206	412.859529684038	0
0	1206	412.859529684038	1
0	1210	413.668413372655	1
0	1215	414.073486601837	1
0	1215	414.073486601837	0
0	1216	414.178550434738	0
0	1216	414.178550434738	1
0	1219	414.824030205763	1
0	1227	416.538953309863	1
0	1230	418.5302098012	1
0	1232	418.601546807615	1
0	1237	419.824736548165	1
0	1237	419.824736548165	0
0	1238	420.197018331303	0
0	1238	420.197018331303	1
0	1241	421.465090255157	1
0	1243	421.874529567826	1
0	1247	423.175642205687	1
0	1254	424.864120033711	1
0	1254	424.864120033711	0
0	1257	425.288012374035	0
0	1258	425.902292652651	0
0	1258	425.902292652651	1
0	1261	426.291392711055	1
0	1261	426.291392711055	0
0	1262	426.671922421148	0
0	1265	427.330830967985	0
0	1265	427.330830967985	1
0	1267	427.402523186038	1
0	1271	429.515921470321	1
0	1271	429.515921470321	0
0	1272	430.843244442809	0
0	1272	430.843244442809	1
0	1274	431.037435421589	1
0	1281	433.836958190053	1
0	1281	433.836958190053	0
0	1282	434.731158180267	0
0	1282	434.731158180267	1
0	1285	437.278609431158	1
0	1285	437.278609431158	0
0	1288	438.914719171754	0
0	1288	438.914719171754	1
0	1290	438.926965010597	1
0	1290	438.926965010597	0
0	1292	439.316797257114	0
0	1294	441.209388586183	0
0	1294	441.209388586183	1
0	1299	442.398556660689	1
0	1302	443.051920127902	1
0	1302	443.051920127902	0
0	1304	443.938572262509	0
0	1304	443.938572262509	1
0	1307	446.220922827494	1
0	1316	448.750054267461	1
0	1318	448.795025935399	1
0	1328	450.911309783437	1
0	1328	450.911309783437	0
0	1331	451.191521261542	0
0	1352	454.263609901766	0
0	1352	454.263609901766	1
0	1386	460.491042069744	1
0	1386	460.491042069744	0
0	1390	460.566578530653	0
0	1390	460.566578530653	1
0	1395	461.837364650031	1
0	1397	462.268136563109	1
0	1397	462.268136563109	0
0	1400	462.561678966454	0
0	1400	462.561678966454	1
0	1407	464.680748919241	1
0	1407	464.680748919241	0
0	1408	465.448192842278	0
0	1408	465.448192842278	1
0	1413	466.051006746655	1
0	1415	466.407952382938	1
0	1415	466.407952382938	0
0	1420	466.970274807904	0
0	1420	466.970274807904	1
0	1426	467.648794356386	1
0	1426	467.648794356386	0
0	1431	468.0501686316	0
0	1431	468.0501686316	1
0	1433	468.064130699854	1
0	1435	468.725300383977	1
0	1435	468.725300383977	0
0	1439	469.021167591163	0
0	1442	469.393143599588	0
0	1443	469.524006535366	0
0	1443	469.524006535366	1
0	1446	470.180581177849	1
0	1446	470.180581177849	0
0	1447	470.276792672018	0
0	1447	470.276792672018	1
0	1450	470.537217741506	1
0	1450	470.537217741506	0
0	1456	471.693718507661	0
0	1456	471.693718507661	1
0	1461	472.492347338097	1
0	1461	472.492347338097	0
0	1465	472.57931251578	0
0	1465	472.57931251578	1
0	1477	474.931368400851	1
0	1481	475.136485376362	1
0	1481	475.136485376362	0
0	1482	475.25178820022	0
0	1482	475.25178820022	1
0	1484	475.55919635038	1
0	1484	475.55919635038	0
0	1494	479.251870071593	0
0	1498	481.840003737963	0
0	1498	481.840003737963	1
0	1500	481.96815232386	1
0	1500	481.96815232386	0
0	1503	483.374245840926	0
0	1503	483.374245840926	1
0	1508	485.537259039981	1
0	1508	485.537259039981	0
0	1512	486.960153301457	0
0	1520	490.373066564139	0
0	1529	492.020302567172	0
0	1529	492.020302567172	1
0	1531	492.49086704338	1
0	1531	492.49086704338	0
0	1534	493.515670288301	0
0	1534	493.515670288301	1
0	1539	494.774566293453	1
0	1557	498.598291867122	1
0	1557	498.598291867122	0
0	1558	498.879697601485	0
0	1558	498.879697601485	1
0	1561	499.876200541932	1
0	1574	506.087814918319	1
0	1577	508.329989575427	1
0	1583	509.185800895681	1
0	1583	509.185800895681	0
0	1587	510.33694865983	0
0	1588	510.445030967111	0
0	1588	510.445030967111	1
0	1590	510.626900109193	1
0	1592	510.901982422951	1
0	1592	510.901982422951	0
0	1593	511.151121318121	0
0	1593	511.151121318121	1
0	1598	512.387963581203	1
0	1603	513.856048494035	1
0	1603	513.856048494035	0
0	1607	514.029680367823	0
0	1607	514.029680367823	1
0	1609	514.342624221526	1
0	1617	515.953340940293	1
0	1622	517.706679644394	1
0	1624	517.768911861621	1
0	1624	517.768911861621	0
0	1634	520.053581000577	0
0	1642	521.901287620891	0
0	1642	521.901287620891	1
0	1647	522.581697473428	1
0	1654	523.541262451942	1
0	1654	523.541262451942	0
0	1660	526.230681840358	0
0	1660	526.230681840358	1
0	1666	528.119314796792	1
0	1669	530.543512550853	1
0	1669	530.543512550853	0
0	1670	532.16479915354	0
0	1670	532.16479915354	1
0	1672	532.164859725335	1
0	1672	532.164859725335	0
0	1674	533.20674162423	0
0	1677	534.324197825921	0
0	1679	534.682744410527	0
0	1680	536.092788701265	0
0	1681	536.512739412536	0
0	1681	536.512739412536	1
0	1685	538.481073852711	1
0	1685	538.481073852711	0
0	1689	539.539503661113	0
0	1689	539.539503661113	1
0	1694	541.154330455595	1
0	1696	541.262350001612	1
0	1696	541.262350001612	0
0	1699	542.791472235876	0
0	1699	542.791472235876	1
0	1701	542.854297267872	1
0	1701	542.854297267872	0
0	1702	543.014910875823	0
0	1704	544.498858342849	0
0	1705	545.33747704692	0
0	1705	545.33747704692	1
0	1719	549.411968294968	1
0	1719	549.411968294968	0
0	1727	550.88705534224	0
0	1727	550.88705534224	1
0	1732	551.329660216384	1
0	1732	551.329660216384	0
0	1734	551.882791437503	0
0	1739	552.974022354092	0
0	1739	552.974022354092	1
0	1744	553.063722364166	1
0	1744	553.063722364166	0
0	1752	554.062630134076	0
0	1758	555.10201882313	0
0	1758	555.10201882313	1
0	1760	555.326351275577	1
0	1765	555.738600649547	1
0	1765	555.738600649547	0
0	1786	559.671326384197	0
0	1792	561.192669749239	0
0	1793	561.349833171601	0
0	1800	566.29562086579	0
0	1801	566.673989572857	0
0	1804	569.006815890111	0
0	1805	569.974540928233	0
0	1808	570.142237476847	0
0	1811	571.755676382961	0
0	1812	571.863614457788	0
0	1814	572.209176194501	0
0	1814	572.209176194501	1
0	1816	572.359703515457	1
0	1816	572.359703515457	0
0	1817	572.761071478451	0
0	1818	572.813473877255	0
0	1818	572.813473877255	1
0	1821	573.215847088536	1
0	1823	573.601989513973	1
0	1823	573.601989513973	0
0	1826	576.53582121178	0
0	1827	576.992284825805	0
0	1827	576.992284825805	1
0	1829	577.017365795367	1
0	1829	577.017365795367	0
0	1830	577.035294229743	0
0	1838	580.208855362437	0
0	1839	582.366131831186	0
0	1840	583.832142924633	0
0	1841	585.076488002483	0
0	1841	585.076488002483	1
0	1843	585.131719087052	1
0	1845	585.6362690151	1
0	1847	585.819513979846	1
0	1857	587.544946004554	1
0	1859	587.559300042521	1
0	1859	587.559300042521	0
0	1863	589.598352875192	0
0	1864	589.989992476338	0
0	1864	589.989992476338	1
0	1868	591.541938241421	1
0	1868	591.541938241421	0
0	1869	591.719213428983	0
0	1870	591.804315109054	0
0	1871	592.524185634829	0
0	1871	592.524185634829	1
0	1873	592.774353264168	1
0	1873	592.774353264168	0
0	1874	593.038731001339	0
0	1874	593.038731001339	1
0	1877	593.78510311342	1
0	1877	593.78510311342	0
0	1879	594.056286222961	0
0	1880	594.756355868686	0
0	1880	594.756355868686	1
0	1882	594.974977344303	1
0	1882	594.974977344303	0
0	1883	595.002428941974	0
0	1884	595.090362287279	0
0	1884	595.090362287279	1
0	1888	595.81835224412	1
0	1888	595.81835224412	0
0	1890	596.858197425699	0
0	1890	596.858197425699	1
0	1892	597.495355217122	1
0	1892	597.495355217122	0
0	1893	597.496072435017	0
0	1893	597.496072435017	1
0	1895	597.846895925085	1
0	1895	597.846895925085	0
0	1900	598.798042438714	0
1	61	16	1
1	63	16.594274179422	1
1	84	24.34431214327	1
1	110	32	1
1	143	43	1
1	188	61	1
1	225	74	1
1	252	82	1
1	260	86	1
1	267	89	1
1	295	94.754020309952	1
1	311	98	1
1	344	110.915965281967	1
1	361	115	1
1	380	119.031418305495	1
1	424	144	1
1	446	150.779960624024	1
1	468	156	1
1	470	156.226754704327	1
1	475	158.271217530811	1
1	484	160.376829345216	1
1	523	177	1
1	532	180.413253392565	1
1	549	185.8372419212	1
1	591	198.834798319995	1
1	649	224	1
1	709	245	1
1	737	255.721383647018	1
1	757	258.933918891026	1
1	760	259.405859864529	1
1	786	271.887264577773	1
1	796	275.761630462002	1
1	810	277	1
1	814	278	1
1	844	293	1
1	858	299.150672627961	1
1	865	300.533832888447	1
1	956	329.709440025488	1
1	972	334.400197391984	1
1	977	337	1
1	996	343.537867694106	1
1	998	344	1
1	1002	344.481405638745	1
1	1039	363	1
1	1046	366	1
1	1092	376	1
1	1116	380.5	1
1	1174	399.096724574196	1
1	1194	405.902161584955	1
1	1213	414	1
1	1224	415.824030205763	1
1	1234	419.5302098012	1
1	1251	424.175642205687	1
1	1263	426.902292652651	1
1	1322	449.750054267461	1
1	1347	454	1
1	1360	455.5	1
1	1381	460	1
1	1486	476	1
1	1649	522.901287620891	1
1	1683	537.512739412536	1
1	1710	546.5	1
1	1716	548	1
1	1747	553.974022354092	1
1	1753	554.5	1
1	1767	556.326351275577	1
1	1772	557.5	1
1	1778	558.5	1
1	1790	561	1
1	1806	570	1
1	1854	586.819513979846	1
1	1886	595.756355868686	1
2	6	1	18533
2	9	2	13449
2	12	2.402120461562	2131
2	13	3	28915
2	18	4	31810
2	23	4.5	24726
2	24	5	18885
2	27	5.00037454741	21235
2	29	6	10500
2	33	8	24760
2	42	13	31506
2	43	13.620904215956	28199
2	51	14.956194400579	26225
2	59	15.737291729283	2753
2	60	16	18889
2	61	16	6181
2	63	16.594274179422	7683
2	71	18.919378428984	19343
2	74	19.889815297094	22438
2	75	20	32391
2	78	23	222
2	84	24.34431214327	6829
2	91	25.252530732739	16524
2	92	25.425658188885	20297
2	93	25.542613598677	30330
2	99	27	1972
2	102	28	25879
2	107	30.939361674567	28349
2	110	32	5017
2	116	33.063598871568	22076
2	117	33.896442387634	1825
2	122	35	13290
2	124	35.899682910141	30050
2	128	39	21694
2	137	41	20808
2	138	41	15173
2	139	41.727225297976	3701
2	143	43	8541
2	150	44.971351387607	31557
2	151	45	4804
2	155	47	2418
2	162	51	30068
2	163	51	3222
2	167	52.544855910463	27931
2	171	53.983103324987	10248
2	177	55.993613053976	3519
2	181	57	12293
2	188	61	5024
2	190	61.228871639213	13829
2	198	64	22132
2	199	64.131129683466	19914
2	201	65	18698
2	204	66.893560663986	2092
2	210	68	22852
2	211	68.967222543823	2185
2	219	72	27722
2	225	74	9942
2	229	75	23703
2	232	76	25904
2	233	76.658797295012	3127
2	241	78	12806
2	242	78.734828355454	19111
2	243	78.767185160099	12688
2	247	79.918624659744	2864
2	252	82	9650
2	253	82	1726
2	259	85.658681184417	23537
2	260	86	7418
2	267	89	5539
2	271	89.842273588642	23485
2	272	90	30061
2	280	91.970943683173	27932
2	281	92	13044
2	284	92.238529089579	2594
2	287	93	23466
2	291	93.376067595119	2889
2	294	94	15414
2	295	94.754020309952	6292
2	305	97	18606
2	306	97.122938480788	21177
2	308	97.606576868277	18273
2	311	98	6463
2	314	98.867842090576	23156
2	319	101.587776600498	985
2	323	102	19478
2	324	103	31532
2	329	105.402419275762	4192
2	334	106.819141079478	12843
2	338	109	29707
2	344	110.915965281967	7464
2	346	111	32732
2	356	114.192769569446	13767
2	357	114.289937247813	24062
2	358	114.535135340455	25958
2	361	115	5287
2	368	115.918451806606	21783
2	369	116.25660652145	11617
2	370	116.378859789975	27273
2	373	118	19136
2	380	119.031418305495	8910
2	382	119.696226055046	28440
2	383	120	11759
2	391	127	29472
2	392	127	20903
2	402	135.309272914804	11787
2	407	137	19497
2	408	138	12777
2	412	139.391372184541	21353
2	417	142.661423552169	14510
2	424	144	8463
2	426	144.064823684424	23188
2	431	144.961152889444	29328
2	433	145.608327593487	1841
2	434	145.912299152715	10880
2	439	147.671104995787	28414
2	440	148	15314
2	443	149.585947253429	20200
2	446	150.779960624024	5212
2	454	153.790588649361	21481
2	456	154.55902018288	382
2	465	155.763364676788	28408
2	467	156	28986
2	468	156	8794
2	470	156.226754704327	6182
2	475	158.271217530811	8770
2	483	159.740183780417	15983
2	484	160.376829345216	5398
2	489	163.716844017013	13227
2	492	165	26993
2	500	166.615742860263	23659
2	504	167	31183
2	505	167.256716405526	22164
2	507	167.625299345136	10509
2	511	171.151452555788	17786
2	516	174.185395128185	3579
2	517	175.042830230798	30929
2	523	177	8852
2	525	178	26202
2	531	179.654288618317	14058
2	532	180.413253392565	5171
2	538	182.279893862745	22766
2	539	183.048356440136	422
2	549	185.8372419212	9391
2	553	186	30673
2	554	186.232807521595	16012
2	562	186.952452419283	24312
2	564	187.242725834406	28862
2	565	187.492676651055	10196
2	568	189	16276
2	572	192	14639
2	577	193.248423681287	763
2	580	193.800225802925	10505
2	581	194.358552592189	29241
2	587	196.087672229871	24072
2	588	196.62357102521	4491
2	591	198.834798319995	9226
2	600	201.424624465492	4131
2	603	202	28763
2	604	203	3265
2	609	205.17998188625	11300
2	610	205.648860041877	15198
2	615	206.788655448541	3863
2	618	207.936848929852	21751
2	622	210.462312746499	687
2	628	214	13276
2	629	214.324853742887	11311
2	635	215.629078971335	4356
2	640	217	4541
2	642	217.331786764545	16660
2	646	221.366841904876	23261
2	649	224	9445
2	658	229	18764
2	665	232	18973
2	670	233.316401609511	22483
2	677	236.508245563283	87
2	680	237.062514036696	11728
2	687	238.035986580341	19083
2	688	238.363196961667	14327
2	690	238.598602828171	14606
2	691	238.721565395058	18429
2	695	240	24672
2	706	244.245469999952	28676
2	707	244.95842647908	368
2	708	244.987958290243	16642
2	709	245	8341
2	715	247.507846984089	12899
2	716	248.282460720445	22603
2	721	250	1021
2	722	250.46517460973	14392
2	725	251.60679013325	16198
2	733	255	12421
2	734	255.057800262609	18362
2	737	255.721383647018	7895
2	741	256.548709570621	774
2	743	256.723619830716	21070
2	748	257.90663147736	15574
2	756	258.776246838197	14391
2	757	258.933918891026	7870
2	759	259	2843
2	760	259.405859864529	6098
2	768	265	3628
2	769	265.418949460675	14120
2	772	267	14554
2	780	270.818751102269	3750
2	783	271.277502404915	2622
2	786	271.887264577773	9654
2	789	272.298965155645	18530
2	792	273.635106978194	23465
2	796	275.761630462002	7237
2	807	276.838020921419	26612
2	810	277	6913
2	812	277.662054229882	31375
2	813	277.747675023992	2405
2	814	278	9709
2	825	285.674818363347	26398
2	826	286	26909
2	833	290.711327453471	20465
2	834	290.720298840805	507