version 2
run General-0-20121208-17:50:32-3825
attr configname General
attr datetime 20121208-17:50:32
attr experiment General
attr inifile omnetpp.ini
attr iterationvars ""
attr iterationvars2 $repetition=0
attr measurement ""
attr network ""
attr processid 3825
attr repetition 0
attr replication #0
attr resultdir results
attr runnumber 0
attr seedset 0

vector 0  SCHWRR.sink  arrivals  ETV
attr interpolationmode  none
0	20	1.951545335884	1
0	26	2.450417344899	1
0	36	3.495029853207	1
0	38	4.229994274396	1
0	62	5.746530248386	1
0	86	8.07288131008	1
0	90	8.716662311682	1
0	96	9.129163541604	1
0	106	10.635798874876	1
0	156	14.20938724722	1
0	162	15.105978118005	1
0	164	15.702357512334	1
0	176	17.575817392191	1
0	180	18.337685163486	1
0	184	18.839995961746	1
0	186	18.859375743094	1
0	192	19.494503458724	1
0	202	20.456878514495	1
0	206	21.021489015615	1
0	208	21.479661899573	1
0	210	21.581982514425	1
0	214	22.154444065853	1
0	226	23.795341643779	1
0	250	25.442060745105	1
0	252	25.630355720324	1
0	266	26.044968262983	1
0	296	28.929512551389	1
0	312	32.676207165214	1
0	314	32.981812067028	1
0	318	33.129408099919	1
0	334	35.262971387393	1
0	354	36.402029038065	1
0	362	37.525489537612	1
0	366	37.658830160884	1
0	374	39.108384937311	1
0	386	40.424011195607	1
0	390	41.53242094982	1
0	392	42.748111423178	1
0	404	43.630991968135	1
0	406	44.30879397019	1
0	420	47.145434163565	1
0	422	47.355967451769	1
0	426	47.868682094398	1
0	432	49.850572435506	1
0	454	51.338002189845	1
0	458	51.626514900193	1
0	466	53.021383991456	1
0	472	53.668558695499	1
0	476	54.251982466534	1
0	484	54.820152950276	1
0	520	56.699271384486	1
0	526	57.484108404077	1
0	538	58.097712613818	1
0	540	58.125154714248	1
0	550	59.135923877347	1
0	554	59.746981438632	1
0	558	60.604416541245	1
0	574	62.999596330634	1
0	592	64.866236800814	1
0	622	68.863800277534	1
0	634	73.096816073865	1
0	646	75.231518468405	1
0	650	75.828068385281	1
0	662	76.09953835171	1
0	668	77.334218227763	1
0	680	78.525199681159	1
0	720	80.795909788555	1
0	724	81.814862969631	1
0	726	81.839696177377	1
0	732	82.595862425167	1
0	734	82.762658183289	1
0	736	82.78727182736	1
0	742	83.341540300773	1
0	750	84.515610437567	1
0	752	84.518317312145	1
0	756	84.775902178486	1
0	762	85.664430890811	1
0	766	86.446315313915	1
0	768	86.929368338178	1
0	780	88.113396074525	1
0	784	88.511344469173	1
0	794	89.483393437652	1
0	806	92.006410899006	1
0	810	92.874166041945	1
0	820	93.146031880519	1
0	822	93.59436118713	1
0	832	94.786613429212	1
0	842	96.133240717748	1
0	862	97.223486304209	1
0	864	97.36670957569	1
0	866	97.804449031803	1
0	868	97.90626467378	1
0	872	98.976347163407	1
0	884	100.700739048875	1
0	902	104.439887526914	1
0	926	108.539821819583	1
0	940	110.485606403505	1
0	942	110.55822246161	1
0	960	111.540007367209	1
0	962	111.656299033975	1
0	968	112.413153351201	1
0	974	113.559231386265	1
0	996	118.396818835326	1
0	1000	118.619457687361	1
0	1008	119.370730061031	1
0	1010	119.869246392944	1
0	1018	121.917984386517	1
0	1022	123.062870835986	1
0	1024	123.56629695144	1
0	1026	123.740466172546	1
0	1034	124.00583613032	1
0	1036	124.090707541359	1
0	1044	125.250223507364	1
0	1062	127.060334518825	1
0	1076	131.875032518556	1
0	1108	135.56350449404	1
0	1130	136.930910213042	1
0	1148	138.230109545474	1
0	1154	139.118813573085	1
0	1158	139.560746761957	1
0	1166	141.61883793961	1
0	1170	142.063556394565	1
0	1190	144.631479114329	1
0	1192	144.941281248888	1
0	1196	145.383431420816	1
0	1202	146.683720562848	1
0	1216	148.792388044733	1
0	1226	150.23277964974	1
0	1244	152.740501985	1
0	1258	155.640000638676	1
0	1266	156.518496129174	1
0	1278	158.509752620511	1
0	1290	160.0920932708	1
0	1308	162.294361716238	1
0	1312	162.488552695018	1
0	1314	163.194404690128	1
0	1316	163.651762601579	1
0	1394	172.21278086089	1
0	1398	172.350545904432	1
0	1400	172.421068269024	1
0	1402	172.496604729933	1
0	1424	175.376348511266	1
0	1428	176.021324348954	1
0	1432	176.330070116896	1
0	1434	176.625937324082	1
0	1444	177.756178163009	1
0	1446	177.852389657178	1
0	1466	179.072993529037	1
0	1468	179.39917432656	1
0	1470	179.604291302071	1
0	1472	179.809960422032	1
0	1488	182.072471225821	1
0	1490	182.362324661411	1
0	1494	183.105875148724	1
0	1498	183.234023734621	1
0	1500	183.339664010177	1
0	1502	183.722239884244	1
0	1508	185.14513414572	1
0	1510	185.270493008376	1
0	1520	186.07443557612	1
