version 2
run General-0-20121208-17:03:01-1680
attr configname General
attr datetime 20121208-17:03:01
attr experiment General
attr inifile omnetpp.ini
attr iterationvars ""
attr iterationvars2 $repetition=0
attr measurement ""
attr network ""
attr processid 1680
attr repetition 0
attr replication #0
attr resultdir results
attr runnumber 0
attr seedset 0

vector 0  ACBannedIP.AC  "Arrivals AC"  ETV
attr interpolationmode  none
vector 1  ACBannedIP.sink  arrivals  ETV
attr interpolationmode  none
0	17	1.255930758047	1
0	18	1.255930758047	1
0	23	1.755930758047	1
0	29	2.179153889517	1
0	31	2.255930758047	1
0	32	2.255930758047	1
0	33	2.255930758047	1
0	34	2.255930758047	1
0	43	2.755930758047	1
0	45	3.21731319018	1
0	47	3.255930758047	1
0	51	3.755930758047	1
0	53	3.86675953843	1
0	63	4.755930758047	1
0	69	5.255930758047	1
0	70	5.255930758047	1
0	71	5.255930758047	1
0	77	5.755930758047	1
0	79	6.255930758047	1
0	81	6.465013624278	1
0	83	6.755930758047	1
0	97	8.255930758047	1
0	98	8.255930758047	1
0	99	8.255930758047	1
0	105	8.755930758047	1
0	125	9.255930758047	1
0	126	9.255930758047	1
0	133	9.755930758047	1
0	137	10.255930758047	1
0	138	10.255930758047	1
0	139	10.255930758047	1
0	140	10.255930758047	1
0	141	10.255930758047	1
0	142	10.255930758047	1
0	143	10.255930758047	1
0	144	10.255930758047	1
0	153	10.310235493419	1
0	155	10.554283984155	1
0	157	10.7164204736	1
0	163	11.255930758047	1
0	167	12.255930758047	1
0	168	12.255930758047	1
0	187	13.045333847814	1
0	191	14.144246315364	1
0	193	14.255930758047	1
0	194	14.255930758047	1
0	195	14.255930758047	1
0	196	14.255930758047	1
0	197	14.255930758047	1
0	198	14.255930758047	1
0	205	14.282275003792	1
0	225	15.340101417144	1
0	237	16.255930758047	1
0	238	16.255930758047	1
0	239	16.255930758047	1
0	240	16.255930758047	1
0	241	16.255930758047	1
0	242	16.255930758047	1
0	243	16.255930758047	1
0	251	16.398844132238	1
0	253	16.51579954203	1
0	255	16.897355385404	1
0	263	17.116235981911	1
0	265	17.255930758047	1
0	266	17.255930758047	1
0	267	17.255930758047	1
0	275	18.202505362789	1
0	277	18.255930758047	1
0	278	18.255930758047	1
0	293	19.255930758047	1
0	294	19.255930758047	1
0	303	20.255930758047	1
0	304	20.255930758047	1
0	305	20.255930758047	1
0	306	20.255930758047	1
0	311	20.307826663581	1
0	313	20.434215300006	1
0	317	20.755930758047	1
0	323	21.255930758047	1
0	324	21.255930758047	1
0	331	21.755930758047	1
0	339	22.255930758047	1
0	340	22.255930758047	1
0	345	22.558452497007	1
0	347	22.755930758047	1
0	369	23.255930758047	1
0	370	23.255930758047	1
0	373	23.416348138081	1
0	377	23.755930758047	1
0	383	24.255930758047	1
0	384	24.255930758047	1
0	385	24.255930758047	1
0	386	24.255930758047	1
0	387	24.255930758047	1
0	388	24.255930758047	1
0	389	24.255930758047	1
0	390	24.255930758047	1
0	391	24.255930758047	1
0	401	24.45812879226	1
0	407	24.755930758047	1
0	411	25.255930758047	1
0	412	25.255930758047	1
0	419	25.755930758047	1
0	421	25.78688666601	1
0	427	26.255930758047	1
0	429	26.683477536795	1
0	431	26.755930758047	1
0	433	27.255930758047	1
0	434	27.255930758047	1
0	449	28.755930758047	1
0	451	28.904984435269	1
0	459	29.255930758047	1
0	460	29.255930758047	1
0	461	29.255930758047	1
0	469	29.755930758047	1
0	471	30.255930758047	1
0	472	30.255930758047	1
0	473	30.255930758047	1
0	479	30.585906639814	1
0	483	30.755930758047	1
0	497	31.755930758047	1
0	499	31.877815908614	1
0	507	32.255930758047	1
0	508	32.255930758047	1
0	509	32.255930758047	1
0	510	32.255930758047	1
0	511	32.255930758047	1
0	519	32.81021878902	1
0	539	33.152818413718	1
0	541	33.255930758047	1
0	542	33.255930758047	1
0	551	33.755930758047	1
0	555	34.255930758047	1
0	556	34.255930758047	1
0	557	34.255930758047	1
0	558	34.255930758047	1
0	559	34.255930758047	1
0	560	34.255930758047	1
0	561	34.255930758047	1
0	562	34.255930758047	1
0	563	34.255930758047	1
0	577	34.535797620254	1
0	579	34.755930758047	1
0	581	34.785879115231	1
0	591	35.358340666659	1
0	595	35.659906579882	1
0	597	35.755930758047	1
0	601	36.255930758047	1
0	602	36.255930758047	1
0	603	36.255930758047	1
0	607	36.429983439428	1
0	611	36.755930758047	1
0	615	37.255930758047	1
0	619	37.755930758047	1
0	625	38.255930758047	1
0	629	38.755930758047	1
0	631	39.255930758047	1
0	632	39.255930758047	1
0	637	39.755930758047	1
0	649	40.755930758047	1
0	651	41.255930758047	1
0	652	41.255930758047	1
0	653	41.255930758047	1
0	654	41.255930758047	1
0	661	41.755930758047	1
0	673	42.755930758047	1
0	679	43.195373959365	1
0	681	43.255930758047	1
0	683	43.641626779884	1
0	685	43.697496832772	1
0	687	43.755930758047	1
0	697	44.255930758047	1
0	699	44.32009417675	1
0	707	45.255930758047	1
0	708	45.255930758047	1
0	711	45.257232894473	1
0	715	45.437190236024	1
0	721	45.755930758047	1
0	723	46.255930758047	1
0	725	46.298113872704	1
0	727	46.536866745551	1
0	729	46.755930758047	1
0	731	46.783726014349	1
0	751	48.255930758047	1
0	752	48.255930758047	1
0	759	49.255930758047	1
0	760	49.255930758047	1
0	761	49.255930758047	1
0	762	49.255930758047	1
0	763	49.255930758047	1
0	764	49.255930758047	1
0	765	49.255930758047	1
0	773	49.755930758047	1
0	779	50.298204694885	1
0	793	51.255930758047	1
0	794	51.255930758047	1
0	797	51.755930758047	1
0	809	52.226564831764	1
0	811	52.255930758047	1
0	812	52.255930758047	1
0	813	52.255930758047	1
0	814	52.255930758047	1
0	819	53.255930758047	1
1	19	1.255930758047	1
1	20	1.255930758047	1
1	24	1.755930758047	1
1	30	2.179153889517	1
1	35	2.255930758047	1
1	36	2.255930758047	1
1	37	2.255930758047	1
1	38	2.255930758047	1
1	44	2.755930758047	1
1	46	3.21731319018	1
1	48	3.255930758047	1
1	52	3.755930758047	1
1	54	3.86675953843	1
1	64	4.755930758047	1
1	72	5.255930758047	1
1	73	5.255930758047	1
1	74	5.255930758047	1
1	78	5.755930758047	1
1	80	6.255930758047	1
1	82	6.465013624278	1
1	84	6.755930758047	1
1	100	8.255930758047	1
1	101	8.255930758047	1
1	102	8.255930758047	1
1	106	8.755930758047	1
1	127	9.255930758047	1
1	128	9.255930758047	1
1	134	9.755930758047	1
1	145	10.255930758047	1
1	146	10.255930758047	1
1	147	10.255930758047	1
1	148	10.255930758047	1
1	149	10.255930758047	1
1	150	10.255930758047	1
1	151	10.255930758047	1
1	152	10.255930758047	1
1	154	10.310235493419	1
1	156	10.554283984155	1
1	158	10.7164204736	1
1	164	11.255930758047	1
1	169	12.255930758047	1
1	170	12.255930758047	1
1	188	13.045333847814	1
1	192	14.144246315364	1
1	199	14.255930758047	1
1	200	14.255930758047	1
1	201	14.255930758047	1
1	202	14.255930758047	1
1	203	14.255930758047	1
1	204	14.255930758047	1
1	206	14.282275003792	1
1	226	15.340101417144	1
1	244	16.255930758047	1
1	245	16.255930758047	1
1	246	16.255930758047	1
1	247	16.255930758047	1
1	248	16.255930758047	1
1	249	16.255930758047	1
1	250	16.255930758047	1
1	252	16.398844132238	1
1	254	16.51579954203	1
1	256	16.897355385404	1
1	264	17.116235981911	1
1	268	17.255930758047	1
1	269	17.255930758047	1
1	270	17.255930758047	1
1	276	18.202505362789	1
1	279	18.255930758047	1
1	280	18.255930758047	1
1	295	19.255930758047	1
1	296	19.255930758047	1
1	307	20.255930758047	1
1	308	20.255930758047	1
1	309	20.255930758047	1
1	310	20.255930758047	1
1	312	20.307826663581	1
1	314	20.434215300006	1
1	318	20.755930758047	1
1	325	21.255930758047	1
1	326	21.255930758047	1
1	332	21.755930758047	1
1	341	22.255930758047	1
1	342	22.255930758047	1
1	346	22.558452497007	1
1	348	22.755930758047	1
1	371	23.255930758047	1
1	372	23.255930758047	1
1	374	23.416348138081	1
1	378	23.755930758047	1
1	392	24.255930758047	1
1	393	24.255930758047	1
1	394	24.255930758047	1
1	395	24.255930758047	1
1	396	24.255930758047	1
1	397	24.255930758047	1
1	398	24.255930758047	1
1	399	24.255930758047	1
1	400	24.255930758047	1
1	402	24.45812879226	1
1	408	24.755930758047	1
1	413	25.255930758047	1
1	414	25.255930758047	1
1	420	25.755930758047	1
1	422	25.78688666601	1
1	428	26.255930758047	1
1	430	26.683477536795	1
1	432	26.755930758047	1
1	435	27.255930758047	1
1	436	27.255930758047	1
1	450	28.755930758047	1
1	452	28.904984435269	1
1	462	29.255930758047	1
1	463	29.255930758047	1
1	464	29.255930758047	1
1	470	29.755930758047	1
1	474	30.255930758047	1
1	475	30.255930758047	1
1	476	30.255930758047	1
1	480	30.585906639814	1
1	484	30.755930758047	1
1	498	31.755930758047	1
1	500	31.877815908614	1
1	512	32.255930758047	1
1	513	32.255930758047	1
1	514	32.255930758047	1
1	515	32.255930758047	1
1	516	32.255930758047	1
1	520	32.81021878902	1
1	540	33.152818413718	1
1	543	33.255930758047	1
1	544	33.255930758047	1
1	552	33.755930758047	1
1	564	34.255930758047	1
1	565	34.255930758047	1
1	566	34.255930758047	1
1	567	34.255930758047	1
1	568	34.255930758047	1
1	569	34.255930758047	1
1	570	34.255930758047	1
1	571	34.255930758047	1
1	572	34.255930758047	1
1	578	34.535797620254	1
1	580	34.755930758047	1
1	582	34.785879115231	1
1	592	35.358340666659	1
1	596	35.659906579882	1
1	598	35.755930758047	1
1	604	36.255930758047	1
1	605	36.255930758047	1
1	606	36.255930758047	1
1	608	36.429983439428	1
1	612	36.755930758047	1
1	616	37.255930758047	1
1	620	37.755930758047	1
1	626	38.255930758047	1
1	630	38.755930758047	1
1	633	39.255930758047	1
1	634	39.255930758047	1
1	638	39.755930758047	1
1	650	40.755930758047	1
1	655	41.255930758047	1
1	656	41.255930758047	1
1	657	41.255930758047	1
1	658	41.255930758047	1
1	662	41.755930758047	1
1	674	42.755930758047	1
1	680	43.195373959365	1
1	682	43.255930758047	1
1	684	43.641626779884	1
1	686	43.697496832772	1
1	688	43.755930758047	1
1	698	44.255930758047	1
1	700	44.32009417675	1
1	709	45.255930758047	1
1	710	45.255930758047	1
1	712	45.257232894473	1
1	716	45.437190236024	1
1	722	45.755930758047	1
1	724	46.255930758047	1
1	726	46.298113872704	1
1	728	46.536866745551	1
1	730	46.755930758047	1
1	732	46.783726014349	1
1	753	48.255930758047	1
1	754	48.255930758047	1
1	766	49.255930758047	1
1	767	49.255930758047	1
1	768	49.255930758047	1
1	769	49.255930758047	1
1	770	49.255930758047	1
1	771	49.255930758047	1
1	772	49.255930758047	1
1	774	49.755930758047	1
1	780	50.298204694885	1
1	795	51.255930758047	1
1	796	51.255930758047	1
1	798	51.755930758047	1
1	810	52.226564831764	1
1	815	52.255930758047	1
1	816	52.255930758047	1
1	817	52.255930758047	1
1	818	52.255930758047	1
